
35208 atoms
40 atom types
34992 bonds
1 bond types

2196.3241945743 2693.6758054257 xlo xhi
2196.3241945743 2693.6758054257 ylo yhi
2196.3241945743 2693.6758054257 zlo zhi

Masses

1 131.199997
2 57.049999
3 128.199997
4 101.099998
5 156.199997
6 71.08000199999999
7 115.099998
8 129.100006
9 163.199997
10 99.06999999999999
11 113.199997
12 128.100006
13 186.199997
14 147.199997
15 87.08000199999999
16 137.100006
17 114.099998
18 97.120003
19 103.099998
20 113.199997
21 131.199997
22 57.049999
23 128.199997
24 101.099998
25 156.199997
26 71.08000199999999
27 115.099998
28 129.100006
29 163.199997
30 99.06999999999999
31 113.199997
32 128.100006
33 186.199997
34 147.199997
35 87.08000199999999
36 137.100006
37 114.099998
38 97.120003
39 103.099998
40 113.199997

Atoms # full

7547 181 15 0 2371.38 2368.98 2545.98
912 1 2 0 2363.78 2367.88 2367.82
913 1 9 0 2363.71 2364.98 2370.1
908 1 15 0 2365.42 2361.79 2369.52
17909 6 9 0 2538.53 2375.59 2360.6
17836 6 18 0 2541.57 2373.63 2361.1
7548 181 12 0 2370.51 2366.06 2543.54
17880 6 9 0 2545.94 2359.79 2360.59
901 1 6 0 2357.7 2363.56 2372.21
900 1 4 0 2358.93 2365.72 2375.22
11040 36 2 0 2552.28 2542.01 2370.35
11041 36 12 0 2548.83 2541.07 2372.18
7545 181 15 0 2372.67 2369.95 2549.29
7546 181 9 0 2376.39 2370.56 2549.73
11045 36 12 0 2552.56 2543.56 2377.8
11042 36 12 0 2545.86 2539.68 2374.5
1109 1 2 0 2361.28 2372.26 2369.17
1137 1 12 0 2364.92 2371.46 2367.86
1123 1 2 0 2373.23 2356.96 2374.7
7539 181 15 0 2374.43 2360.79 2540.94
7543 181 15 0 2371.3 2362.56 2542.5
17878 6 15 0 2542.97 2357.58 2361.69
1110 1 18 0 2360.51 2371.35 2372.84
7536 181 12 0 2374.38 2357.21 2542.3
17877 6 2 0 2540.58 2359.79 2363.97
11046 36 12 0 2550.87 2546.91 2377.86
7550 181 2 0 2378.08 2370.7 2546.09
7549 181 12 0 2376.41 2370.33 2542.67
932 1 9 0 2369.55 2376.3 2374.44
958 1 2 0 2372.22 2374.65 2376.41
17835 6 4 0 2542.89 2370.16 2362.22
11096 36 15 0 2547.24 2545.63 2377.7
17876 6 9 0 2537.63 2362.28 2364.39
11095 36 9 0 2544.96 2547.46 2375.11
7544 181 12 0 2376.22 2372.52 2539.49
18521 12 12 0 2534.02 2378.29 2373.48
18492 12 18 0 2547.19 2373.58 2363.33
18491 12 2 0 2545.03 2376.8 2362.64
11039 36 15 0 2542.68 2537.19 2374.22
907 1 12 0 2367.37 2358.94 2367.99
8125 186 7 -0.75 2551.79 2366.64 2537.91
17834 6 12 0 2541.28 2366.73 2361.45
18496 12 9 0 2541.29 2377.14 2371.65
18497 12 15 0 2537.46 2376.98 2372.61
8124 186 9 0 2547.91 2367.16 2537.12
11034 36 9 0 2555.01 2541.73 2367.63
8123 186 17 0 2555.32 2365.45 2538.37
1124 1 9 0 2375.13 2358.52 2377.6
1177 1 12 0 2376.01 2375.14 2376.46
18494 12 12 0 2548.74 2375.5 2366.19
18490 12 2 0 2543.26 2376.71 2368.24
1122 1 12 0 2373.79 2356.97 2371.01
1125 1 15 0 2377.35 2356.56 2370.43
17832 6 18 0 2539.48 2366.1 2358.09
17875 6 15 0 2535.06 2365.2 2364.96
950 1 12 0 2377.43 2377.08 2368.12
17902 6 15 0 2537.63 2360.06 2376.92
1103 1 12 0 2356.49 2371.4 2372.52
11032 36 9 0 2537.98 2536.17 2369.77
11091 36 2 0 2544.57 2550.14 2377.88
899 1 12 0 2362.13 2365.49 2377.13
17798 6 18 0 2536.56 2356.95 2361.02
11090 36 2 0 2534.87 2534.46 2368.39
17879 6 15 0 2543.42 2361.73 2358.78
17831 6 2 0 2535.72 2365.91 2359.53
17797 6 9 0 2536.84 2359.1 2358.14
17912 6 12 0 2534.1 2359.05 2377.45
17904 6 12 0 2536.46 2368.83 2365.02
7591 181 2 0 2375.66 2360.21 2535.56
8122 186 4 0 2546.44 2368.89 2534.13
7715 181 15 0 2378.73 2374.02 2536.93
7596 181 12 0 2378.68 2358.11 2536.17
11043 36 15 0 2556.5 2544.75 2377.29
11037 36 15 0 2558.99 2546.75 2375.17
11035 36 18 0 2557.66 2543.04 2370.15
11036 36 12 0 2560 2544.08 2372.89
1174 1 15 0 2380.53 2375.84 2369.82
1160 1 2 0 2382.37 2369.69 2363.01
8117 186 6 0 2562.14 2366.65 2537.13
1164 1 2 0 2385.01 2367.39 2364.54
1181 1 9 0 2383.97 2377.61 2370.33
934 1 15 0 2391 2369.12 2357.9
1165 1 15 0 2389.33 2370.8 2360.91
1147 1 12 0 2390.89 2369.61 2364.18
1167 1 12 0 2390.5 2375.18 2367.47
1151 1 15 0 2389.08 2369.59 2367.6
1168 1 12 0 2388.14 2377.35 2365.47
1150 1 15 0 2386.44 2371.63 2369.29
1149 1 2 0 2383.09 2370.68 2367.42
1166 1 12 0 2393.85 2373.2 2368.16
942 1 15 0 2392.89 2371.65 2371.67
943 1 9 0 2394.91 2368.94 2373.48
1161 1 2 0 2393.67 2361.98 2366.88
1162 1 4 0 2394.98 2364.4 2369.49
1148 1 9 0 2382.55 2373.12 2364.34
2443 37 15 0 2386.52 2374.11 2375.12
1163 1 17 0 2396.23 2366.77 2366.79
1169 1 2 0 2389 2375.86 2362.13
1158 1 12 0 2397.75 2365.2 2363.68
11187 68 12 0 2394.16 2539.29 2375.11
941 1 2 0 2397.51 2366.43 2373.67
525 2 18 0 2393.92 2374.03 2361.82
11185 68 2 0 2396.96 2538.37 2372.6
541 2 12 0 2396.22 2376.54 2374.12
11188 68 12 0 2390.67 2540.08 2375.93
2444 37 12 0 2387.91 2370.6 2374.66
524 2 12 0 2397.37 2372.2 2362.44
1146 1 4 0 2383.82 2364.51 2366.55
2445 37 15 0 2387.73 2368.43 2377.76
914 1 9 0 2389.68 2362.63 2361.29
11192 68 9 0 2400.03 2535.79 2368.04
1120 1 9 0 2381.28 2358.08 2364.93
1132 1 15 0 2385.58 2361.91 2368.58
1159 1 15 0 2396.76 2362.93 2361.07
526 2 15 0 2397.83 2373.48 2376.23
523 2 4 0 2399.86 2372.6 2365.45
1131 1 2 0 2385.23 2358.09 2369.37
1176 1 18 0 2379.23 2376.89 2375.05
1152 1 2 0 2392.82 2360.64 2360.04
1143 1 15 0 2388.34 2359.41 2363.29
1155 1 12 0 2396 2361.19 2357.95
1145 1 15 0 2384.73 2358.21 2363.66
8118 186 15 0 2558.41 2366.75 2536.85
1170 1 2 0 2386.74 2375.02 2359.36
527 2 2 0 2393.13 2376.18 2358.65
1130 1 9 0 2384 2357.72 2372.93
1157 1 9 0 2392.7 2358.4 2367.7
11184 68 15 0 2399.62 2535.12 2364.19
7590 181 12 0 2381.44 2360.78 2536.36
531 2 15 0 2400.51 2370.86 2375.63
1156 1 2 0 2392.2 2356.71 2371.19
11186 68 2 0 2397.93 2535.49 2374.94
1172 1 15 0 2382.99 2378.24 2360.12
11193 68 12 0 2396.5 2534.19 2362.34
2448 37 15 0 2384.75 2376.91 2377.1
11280 68 12 0 2387.49 2539.09 2377.46
2457 37 12 0 2381.46 2361.55 2378.25
926 1 15 0 2398.36 2369.45 2357.21
511 2 6 0 2398.87 2375.64 2358.62
1171 1 9 0 2384.49 2376.88 2356.95
8116 186 1 0 2562.65 2369.68 2534.64
7595 181 18 0 2384.98 2361.06 2534.93
933 1 12 0 2394.84 2368.45 2357.19
940 1 12 0 2400.86 2364.63 2373.35
522 2 18 0 2401.64 2375.59 2367.11
939 1 12 0 2401.88 2365.96 2369.99
11200 68 2 0 2406.31 2537.04 2366.85
11201 68 15 0 2402.86 2538.35 2367.54
937 1 12 0 2403.79 2366.32 2366.69
924 1 9 0 2406.47 2362.19 2361.24
925 1 15 0 2405.91 2363.74 2364.5
923 1 17 0 2403.02 2361.32 2360.01
928 1 9 0 2403.63 2369.22 2360.47
504 2 2 0 2415.02 2371.66 2361.08
513 2 7 -0.75 2407.01 2374.61 2363.33
517 2 12 0 2407.65 2367.68 2371.72
515 2 4 0 2407.4 2370.75 2369.33
516 2 9 0 2407.32 2371.98 2366.06
575 2 17 0 2418.1 2364.31 2371.6
576 2 9 0 2418.35 2360.93 2370.11
651 2 15 0 2417.47 2357.85 2367.76
509 2 9 0 2416.38 2372.93 2364.41
505 2 2 0 2415.59 2370.37 2367.19
497 2 2 0 2412.29 2368.71 2368.45
553 2 4 0 2412.32 2365.09 2368.57
520 2 12 0 2407.74 2364.56 2373.52
12853 69 4 0 2403.7 2538.08 2375.74
519 2 6 0 2410.32 2365.13 2376.23
616 2 12 0 2418.06 2359.72 2377.25
615 2 12 0 2416.59 2363.25 2377.79
518 2 4 0 2412.77 2368.1 2376.18
7826 182 7 -0.75 2421.66 2375.87 2538.39
11202 68 15 0 2408.33 2534.86 2369.16
600 2 9 0 2412.72 2374.51 2369.72
11204 68 12 0 2411.72 2536.18 2370.52
535 2 9 0 2415.91 2360 2360.71
604 2 12 0 2403.69 2372.58 2374.99
529 2 15 0 2411.79 2374.31 2373.25
530 2 12 0 2412.06 2371.77 2375.83
607 2 12 0 2420.74 2368.05 2375.93
534 2 15 0 2411.49 2362.89 2365.5
536 2 2 0 2413.71 2360.76 2363.34
7829 182 12 0 2419.46 2365.19 2543.27
7830 182 12 0 2420.84 2366.96 2540.23
10746 32 12 0 2410.55 2534.11 2357.54
563 2 18 0 2417.16 2367.91 2371.48
562 2 18 0 2417.93 2371.58 2371.96
566 2 12 0 2419.26 2375.39 2371.54
7821 182 12 0 2422.7 2356.27 2539.03
11203 68 12 0 2411.44 2536.87 2377.66
7827 182 17 0 2418.96 2378.03 2536.71
514 2 17 0 2404.39 2375.73 2360.6
503 2 15 0 2414.07 2374.09 2358.63
11205 68 18 0 2412.25 2537.69 2373.82
632 2 2 0 2419.58 2377.68 2378.07
927 1 15 0 2402.09 2370.51 2357.04
930 1 12 0 2410.98 2368.11 2362.21
929 1 2 0 2407.37 2369.01 2361.31
10766 32 2 0 2407.41 2534.33 2359.51
936 1 12 0 2412.26 2367.87 2358.56
7785 182 6 0 2421.97 2362.28 2543.33
7786 182 4 0 2422.75 2359.03 2541.55
528 2 6 0 2407.75 2377.83 2367.63
601 2 2 0 2411.09 2377.96 2369.34
512 2 15 0 2401.01 2377.41 2361.26
619 2 12 0 2417.32 2356.27 2375.84
23 3 2 0 2421.85 2356.94 2369.95
539 2 18 0 2403.21 2375.07 2377.94
621 2 15 0 2413.18 2377.72 2378.19
12848 69 12 0 2403.66 2534.24 2375.84
532 2 2 0 2419.68 2360.99 2360.23
938 1 15 0 2410.62 2364.67 2357.26
922 1 18 0 2402.7 2362.12 2356.22
7828 182 4 0 2423.17 2370 2540.63
7825 182 9 0 2424.57 2373.59 2539.86
608 2 12 0 2422.9 2365.1 2377.38
33 3 9 0 2424.87 2358.71 2371.57
34 3 2 0 2424.84 2362.39 2372.04
30 3 9 0 2423.79 2369.06 2369.93
35 3 18 0 2424.04 2365.43 2370.14
606 2 15 0 2425.51 2362.25 2376.66
26725 33 12 0 2439.79 2539.04 2369.83
131 3 12 0 2437.4 2366.56 2361.67
26716 33 9 0 2434.7 2538.41 2363.93
26727 33 9 0 2432.59 2537.34 2370.81
26715 33 15 0 2431.62 2540.54 2364.93
68 3 12 0 2431.07 2375.55 2375.33
81 3 15 0 2424.85 2372.27 2368.25
38 3 15 0 2426.15 2375.03 2370.78
69 3 12 0 2428.73 2373.83 2373.08
533 2 9 0 2436.55 2367.53 2368.99
560 2 2 0 2436.08 2369.64 2366.11
561 2 4 0 2434.83 2373.28 2366.79
54 3 9 0 2439.45 2373.08 2359.81
152 3 15 0 2439.04 2376.73 2370.47
138 3 18 0 2437.89 2372.77 2374.64
551 2 17 0 2432.67 2376.08 2368.28
113 3 2 0 2442.91 2373.23 2358.26
154 3 2 0 2436.97 2377.88 2373.11
558 2 15 0 2433.74 2377.08 2358.36
495 2 4 0 2430.32 2368.96 2367.78
496 2 2 0 2433.13 2367.98 2370.19
26717 33 15 0 2430.78 2539.55 2368.32
494 2 12 0 2429.85 2368.2 2364.28
26728 33 2 0 2436.35 2537.52 2369.73
133 3 15 0 2438.68 2369.98 2361.77
493 2 15 0 2427.38 2366.91 2361.66
15 3 12 0 2442.33 2366.77 2356.41
602 2 15 0 2431.04 2364.83 2373.37
153 3 12 0 2440.81 2373.91 2372.36
136 3 12 0 2443.35 2367.66 2374
626 2 2 0 2432.46 2368.06 2375.06
26721 33 15 0 2443.08 2539.07 2368.08
492 2 4 0 2426.54 2368.05 2358.08
552 2 12 0 2430.67 2377.29 2365.47
506 2 15 0 2426.86 2378.06 2366.63
135 3 6 0 2442.71 2365.88 2366.69
26616 33 15 0 2428.59 2535.84 2358.74
603 2 9 0 2429.28 2363.01 2375.81
142 3 9 0 2436.48 2363.22 2375.49
145 3 15 0 2432.89 2357.55 2376.8
629 2 15 0 2431.4 2370.15 2377.97
34019 213 12 0 2443.48 2537.43 2536.38
132 3 4 0 2440.33 2365.35 2363.89
26609 33 15 0 2433.51 2541.07 2357.86
557 2 12 0 2430.5 2374.95 2359.13
26718 33 15 0 2437.78 2536.26 2364.48
1675 39 12 0 2443.21 2361.05 2375.1
26720 33 12 0 2443.9 2535.54 2366.91
66 3 9 0 2444.67 2378.11 2365.69
34023 213 15 0 2444.57 2539.74 2539.25
137 3 4 0 2443.61 2368.29 2377.67
130 3 12 0 2437.5 2370.08 2377.3
129 3 2 0 2437.93 2366.28 2376.88
26617 33 15 0 2428.38 2536.85 2362.55
141 3 15 0 2435.92 2359.41 2375.7
555 2 2 0 2433.49 2369.93 2357.5
556 2 12 0 2432.98 2372.1 2360.49
26618 33 12 0 2428.25 2534.66 2365.62
148 3 12 0 2444.57 2370.09 2363.16
134 3 12 0 2443.24 2367.47 2370.03
26657 33 2 0 2437.21 2540.09 2356.82
490 2 12 0 2422.91 2362.41 2358.41
26658 33 15 0 2437.24 2536.29 2357.41
491 2 18 0 2424.72 2365.18 2356.33
17908 6 6 0 2540.36 2378.37 2358.71
18495 12 4 0 2548.85 2379.25 2366.83
957 1 15 0 2371.93 2378.59 2372.45
17907 6 2 0 2542.36 2381.53 2359.51
18489 12 6 0 2549.76 2380.33 2357.29
18500 12 9 0 2549.86 2380.03 2360.88
18501 12 18 0 2550.99 2381.46 2364.07
25924 192 2 0 2539.46 2397 2534.05
25838 192 12 0 2535.74 2379.89 2543.24
956 1 15 0 2370.41 2381.67 2371.81
931 1 15 0 2372.71 2383.36 2369.42
18493 12 12 0 2542.55 2378.55 2365.08
949 1 12 0 2375.12 2385.66 2371.27
1645 43 18 0 2367.66 2386.94 2368.92
1649 43 4 0 2367.09 2388.24 2372.42
1646 43 9 0 2373.85 2389.27 2364.21
1648 43 2 0 2370.66 2387.28 2363.42
1643 43 12 0 2368.24 2385.21 2365.69
1361 7 2 0 2368.06 2390.32 2361.11
1362 7 9 0 2367.1 2392.2 2364.08
1650 43 15 0 2366.59 2385.63 2375.33
18529 12 18 0 2548.27 2394.55 2377.54
1651 43 12 0 2370.21 2385.86 2376.42
19396 12 4 0 2539.97 2396.24 2374.54
18527 12 6 0 2548.96 2397.72 2375.56
25806 192 12 0 2537.68 2382.45 2541.46
19397 12 15 0 2543.48 2395.23 2373.02
19395 12 15 0 2545.93 2395.11 2370.12
19393 12 18 0 2548.96 2396.63 2371.95
25929 192 15 0 2539.09 2396.77 2541.04
19374 12 2 0 2534.02 2396.79 2371.51
25928 192 12 0 2539.87 2396.14 2544.78
25914 192 12 0 2539.98 2388.44 2545.97
25915 192 12 0 2539.45 2392.31 2545.49
1363 7 2 0 2370.29 2393.96 2365.76
18519 12 9 0 2539.04 2389.16 2375.54
7668 187 9 0 2367.5 2399.94 2542.68
25931 192 9 0 2540.44 2395.95 2537.54
948 1 15 0 2376.22 2387.77 2374.67
1357 7 4 0 2373.32 2395.84 2364.06
17852 6 6 0 2535.55 2388.78 2359.85
17849 6 18 0 2537.47 2390.86 2357.08
19394 12 15 0 2537.37 2394.91 2372.28
18520 12 18 0 2542.14 2389.79 2377.89
17906 6 9 0 2544.63 2384.68 2358.57
25810 192 15 0 2536.83 2382.53 2537.83
962 1 15 0 2377.07 2390.66 2372.27
1647 43 2 0 2375.42 2391.65 2366.87
1638 43 15 0 2377.48 2396.56 2377.74
1364 7 4 0 2376.63 2395.17 2359.02
18574 12 15 0 2538.94 2385.27 2375.6
18545 12 15 0 2535.88 2383.43 2376.44
18499 12 2 0 2553.4 2381.15 2356.09
1541 43 15 0 2377.31 2394.49 2368.12
1538 43 4 0 2377.88 2395.89 2371.53
25809 192 9 0 2534.16 2380.55 2535.78
1358 7 17 0 2374.49 2398.93 2366.09
1354 7 2 0 2377.34 2398.67 2359.93
17853 6 18 0 2535.46 2391.73 2362.44
25919 192 2 0 2536.61 2387.15 2544.39
251 18 9 0 2534.31 2399.26 2358.66
1367 7 18 0 2374.94 2387.28 2357.43
1360 7 4 0 2370.83 2391.92 2359.07
17905 6 15 0 2541.26 2385.95 2357.26
1639 43 15 0 2379.64 2393.78 2376.24
1395 7 15 0 2379.01 2393.17 2360.98
1175 1 12 0 2378.71 2379.14 2365.26
961 1 15 0 2380.24 2389.75 2370.41
1394 7 2 0 2381.83 2395.41 2359.32
1179 1 15 0 2383.5 2381.13 2371.27
545 2 2 0 2396.2 2378.83 2361.44
538 2 15 0 2395.52 2378.85 2368.32
540 2 12 0 2397.96 2378.58 2371.43
1180 1 2 0 2381.52 2384.62 2371.58
537 2 9 0 2397.04 2380.45 2364.88
1641 43 12 0 2382.45 2391 2376.16
1540 43 2 0 2378.95 2398.96 2370.07
959 1 2 0 2380.68 2389.54 2366.68
960 1 9 0 2380.26 2387.58 2363.31
1640 43 15 0 2386.03 2391.2 2376.53
944 1 15 0 2382.83 2385.33 2365.07
966 1 2 0 2386.01 2383.42 2364.9
1178 1 12 0 2378.64 2380.78 2374.33
1182 1 15 0 2380.91 2383.55 2375.04
1209 7 12 0 2388.96 2388.22 2363.89
1210 7 18 0 2391.83 2385.93 2363.1
1467 7 2 0 2388.29 2379.48 2374.94
1449 7 18 0 2390.24 2380.24 2371.62
1453 7 9 0 2389.83 2383.03 2369.21
1212 7 2 0 2391.38 2390.74 2365.86
1436 7 2 0 2390.56 2383.14 2376.02
1211 7 18 0 2395.33 2385.52 2360.9
1220 7 9 0 2392.61 2392.34 2369.04
1348 7 9 0 2399.03 2390.89 2363
1347 7 2 0 2399.64 2391.1 2359.16
1452 7 15 0 2388.24 2386.34 2368.91
1450 7 15 0 2385.13 2388.43 2369.93
1451 7 12 0 2385.89 2392.13 2369.2
1447 7 9 0 2388.33 2399.07 2375.55
1443 7 12 0 2384.8 2395.67 2370.6
1444 7 2 0 2386.13 2399.06 2372.46
1439 7 12 0 2394.14 2382.3 2376.16
1539 43 2 0 2381.83 2399.88 2372.24
1352 7 15 0 2396.9 2390.44 2356.51
1222 7 2 0 2392.81 2395.41 2366.87
1536 43 2 0 2378.84 2399.7 2376.02
1221 7 12 0 2396.26 2397.2 2366.16
1224 7 12 0 2397.05 2398.96 2369.65
1223 7 17 0 2395.92 2398.89 2373.14
1434 7 18 0 2396.9 2387.99 2373.88
1433 7 6 0 2396.86 2391.84 2373.24
1382 7 15 0 2385.32 2399.87 2359.83
1353 7 15 0 2395.18 2393.22 2358.28
1380 7 12 0 2390.43 2400.45 2367.11
1381 7 9 0 2388.16 2397.2 2360.64
1379 7 15 0 2389.97 2398.84 2363.71
1173 1 18 0 2379.75 2379.89 2361.69
1440 7 12 0 2396.97 2384.43 2374.88
1343 7 15 0 2396.2 2389.44 2364.55
1340 7 12 0 2398.2 2398.26 2376.31
965 1 15 0 2386.64 2388.59 2357.72
967 1 4 0 2385.34 2385.61 2359.93
968 1 15 0 2386.05 2382.11 2361.19
544 2 12 0 2392.8 2379.68 2359.73
1344 7 2 0 2395.05 2386.82 2367.69
969 1 15 0 2390.37 2388.5 2358.09
1466 7 9 0 2387.35 2382.37 2377.57
1438 7 18 0 2399.28 2392.12 2370.31
1442 7 15 0 2398.58 2385.28 2368.19
1327 7 17 0 2398.25 2383.53 2358.92
1454 7 2 0 2380.47 2399.02 2361.88
1457 7 9 0 2382.07 2398.55 2365.14
1351 7 15 0 2395.49 2397.17 2358.42
1366 7 9 0 2382.94 2393.76 2356.31
521 2 9 0 2403.92 2378.74 2367.86
7824 182 15 0 2416.13 2378.67 2539.34
565 2 2 0 2421.48 2378.69 2371.67
1330 7 9 0 2400.81 2395.69 2377.68
7822 182 1 0 2416.75 2380.48 2545.38
627 2 15 0 2405.1 2386.95 2375.99
7823 182 6 0 2418.12 2379.08 2542.31
628 2 9 0 2405.27 2385.63 2372.66
1411 7 12 0 2401.67 2398.74 2363.38
633 2 15 0 2403.06 2382.59 2373.15
1328 7 9 0 2401.98 2383.73 2359.78
1329 7 15 0 2403.32 2387.54 2359.64
1345 7 12 0 2405.42 2389.66 2362.08
1341 7 12 0 2408.88 2388.2 2361.69
1435 7 4 0 2402.16 2385.56 2367.2
1441 7 15 0 2403.65 2389 2367.44
1437 7 15 0 2403.12 2391.63 2369.98
1342 7 12 0 2412.03 2390.21 2361.53
1339 7 2 0 2410.78 2393.72 2361.64
759 8 15 0 2408.69 2384.61 2367.57
542 2 9 0 2407.56 2378.79 2374.77
547 2 12 0 2413.26 2383.04 2372.89
760 8 17 0 2411.01 2382.15 2365.89
761 8 9 0 2410.1 2380.9 2362.53
587 2 12 0 2418.01 2391.85 2363.3
830 8 12 0 2409.65 2382.69 2359.15
867 8 15 0 2416.97 2397.65 2363.62
586 2 2 0 2416 2393.31 2366.28
589 2 9 0 2413.53 2391.19 2368.25
546 2 15 0 2415.72 2385.68 2372.69
581 2 4 0 2417.56 2388.82 2372.88
548 2 15 0 2410.57 2380.79 2373.43
588 2 2 0 2413.1 2389.45 2371.39
582 2 7 -0.75 2416.52 2392.01 2375.04
583 2 15 0 2411.08 2388.84 2374.64
625 2 2 0 2403.79 2379.03 2374.12
584 2 4 0 2412.89 2391.91 2375.69
564 2 12 0 2421.16 2385.48 2367.76
648 2 12 0 2417.96 2386.66 2366.72
649 2 17 0 2415.46 2385.9 2364.09
865 8 15 0 2413.35 2397.57 2364.07
869 8 12 0 2410.94 2400.14 2365.45
1970 43 9 0 2407.59 2394.32 2373.97
1971 43 2 0 2407.19 2397.84 2375.04
846 8 15 0 2415.14 2394.92 2359.32
270 14 9 0 2415.37 2398.62 2372.91
1403 7 2 0 2403.35 2395.09 2364.14
274 14 2 0 2412.45 2397.97 2375.33
875 8 12 0 2421.13 2394.74 2369.84
1338 7 9 0 2408.14 2395.39 2359.48
585 2 15 0 2419.78 2389.24 2361.4
874 8 15 0 2421.04 2398.41 2368.96
1402 7 18 0 2404.91 2396.29 2367.26
2005 43 15 0 2407.48 2392.98 2377.35
644 2 12 0 2416.2 2384.69 2360.68
1335 7 15 0 2407.33 2392.6 2356.92
866 8 15 0 2420.31 2399.61 2363.16
840 8 12 0 2414.43 2398.65 2358.07
567 2 9 0 2422.22 2381.78 2373.95
568 2 2 0 2422.69 2383.22 2370.3
864 8 2 0 2421.52 2399.6 2357.87
1412 7 2 0 2401.62 2400.36 2360.1
1392 7 12 0 2403.93 2398.58 2369.85
996 8 9 0 2420.31 2399.19 2377.69
643 2 9 0 2416.3 2384.82 2357
845 8 2 0 2416.31 2393.48 2356.15
74 3 15 0 2443.46 2389.58 2358.43
876 8 12 0 2423.26 2393.47 2366.72
559 2 15 0 2436.66 2378.69 2360.19
161 3 15 0 2435.69 2380.9 2375
574 2 15 0 2423.41 2389.83 2362.37
571 2 9 0 2437.23 2378.86 2363.86
18101 9 9 0 2441.36 2393.09 2363.26
863 8 9 0 2422.87 2398.17 2361.07
577 2 18 0 2435.55 2381.37 2366.37
578 2 2 0 2434.26 2381.98 2369.94
18094 9 2 0 2437.12 2396.05 2369.83
507 2 12 0 2424.56 2381.1 2365.47
572 2 9 0 2426.27 2387.54 2363.89
579 2 9 0 2430.35 2381.98 2370.66
580 2 2 0 2429.5 2381.78 2374.39
508 2 2 0 2426.56 2381.46 2362.32
573 2 15 0 2430.06 2386.45 2364.46
570 2 15 0 2431.71 2383.58 2362.84
569 2 9 0 2429.71 2381.95 2360.2
7973 188 9 0 2431.6 2390.82 2537.08
162 3 9 0 2436.8 2384.61 2375.1
883 8 9 0 2430.29 2393.67 2366.14
7975 188 2 0 2435.09 2391.15 2536.23
3 3 2 0 2432.73 2388.88 2370.84
4 3 15 0 2435.84 2391.18 2366.56
1 3 4 0 2434.25 2387.87 2367.7
2 3 2 0 2436.34 2389.69 2362.97
62 3 9 0 2437.52 2386.22 2362.2
17975 9 2 0 2438.87 2389.22 2371.5
882 8 15 0 2426.66 2395.08 2365.56
116 3 2 0 2428.99 2388.37 2370.18
115 3 9 0 2425.8 2388.25 2372.25
17976 9 12 0 2437.99 2392.78 2371.83
978 8 18 0 2430.19 2394.6 2373.55
872 8 2 0 2431.95 2396.56 2367.8
56 3 15 0 2433.26 2390.75 2377.76
18967 9 18 0 2437.82 2398.85 2367.41
61 3 12 0 2437.11 2390.46 2378.23
114 3 2 0 2428.58 2388.84 2374.97
7979 188 12 0 2433.25 2398.64 2540.06
7980 188 18 0 2435.22 2399.52 2536.91
163 3 15 0 2440.44 2383.18 2375.5
7982 188 2 0 2434.56 2396.68 2534.6
879 8 12 0 2427.37 2400.49 2366.56
982 8 4 0 2424.89 2393.82 2374.92
976 8 12 0 2426.84 2396.03 2372.63
7978 188 4 0 2429.65 2397.9 2539.06
1194 8 12 0 2438.2 2397.79 2375.92
18100 9 2 0 2441.79 2392.96 2366.93
7974 188 15 0 2428.62 2392.53 2535.48
55 3 15 0 2429.55 2391.08 2378.13
983 8 18 0 2423.08 2392.64 2378.21
878 8 15 0 2424.32 2400.5 2368.8
164 3 12 0 2443.12 2382.09 2373.22
18097 9 15 0 2444.7 2394.9 2368.26
18083 9 9 0 2440.46 2386.99 2368.7
652 2 12 0 2428.24 2381.61 2377.89
7932 188 12 0 2424.87 2392.36 2535.45
1201 8 15 0 2441.53 2398.81 2376.66
78 3 15 0 2443.12 2381.72 2364.94
977 8 2 0 2432.5 2397.78 2372.96
873 8 12 0 2432.69 2399.83 2369.87
999 8 15 0 2423.97 2399.49 2376.46
18092 9 15 0 2444.18 2387.28 2367.97
76 3 15 0 2444.94 2384.3 2363.17
79 3 12 0 2441.42 2386.65 2356.86
64 3 2 0 2435.27 2385.43 2359.3
18095 9 15 0 2444.84 2389.33 2377.72
18102 9 15 0 2444.5 2395 2362.23
63 3 12 0 2435.66 2382.96 2356.58
40 3 9 0 2442.24 2379.93 2358.77
47 3 2 0 2442.61 2383.65 2359.04
7981 188 12 0 2437.19 2394.07 2534.9
7934 188 18 0 2428.56 2398.69 2535.52
7947 188 9 0 2423.17 2384.69 2535.36
7946 188 2 0 2426.75 2385.11 2534.3
7662 187 15 0 2364.21 2401.5 2542.67
19401 12 12 0 2539.76 2402.28 2371.71
429 18 15 0 2534.98 2414.59 2373.28
8805 187 17 0 2369.51 2401.63 2539.9
19390 12 9 0 2535.28 2400.93 2377.03
8807 187 18 0 2369.9 2402.76 2536.37
19388 12 2 0 2537.33 2400.69 2373.92
474 18 15 0 2540.81 2420.71 2369.9
416 18 15 0 2540.02 2418.01 2367.19
669 13 18 0 2365.26 2416.19 2373.06
678 13 12 0 2366.07 2414.36 2369.87
19399 12 12 0 2545.41 2405.34 2370.37
19400 12 18 0 2541.84 2404.55 2369.69
671 13 15 0 2368.86 2413.62 2367.28
677 13 15 0 2368.04 2414.66 2360.04
670 13 2 0 2369.16 2414.8 2363.85
447 18 12 0 2548.67 2420.29 2366.6
441 18 12 0 2548.85 2418.52 2370.2
440 18 2 0 2545.95 2420.8 2371.21
1355 7 12 0 2374.05 2402.31 2366.18
1356 7 15 0 2371.68 2405.15 2365.81
19402 12 15 0 2545.04 2409.14 2369.11
449 18 12 0 2545.46 2420.06 2364.76
1462 7 12 0 2373.45 2408.65 2365.62
19398 12 2 0 2543.78 2408.77 2365.55
668 13 12 0 2367.7 2416.9 2375.76
691 13 15 0 2375.29 2406.01 2370.95
767 13 2 0 2373.44 2402.79 2371.75
7663 187 12 0 2362.19 2403.61 2540.26
676 13 15 0 2375.77 2414.05 2369.97
444 18 9 0 2547.18 2422.25 2359.04
351 18 12 0 2535.4 2407.85 2363.41
350 18 18 0 2538.8 2409.32 2363.44
19404 12 15 0 2544.73 2407.59 2362.18
19403 12 9 0 2545.04 2408.4 2358.58
371 18 2 0 2541.37 2411.79 2362.12
7665 187 12 0 2363.19 2402.84 2536.57
19381 12 12 0 2541.03 2409.52 2374.05
385 18 12 0 2540.44 2415.61 2362.32
1373 7 2 0 2376.77 2407.81 2363.79
417 18 12 0 2536.39 2416.39 2366.92
355 18 2 0 2540.51 2418.21 2359.57
673 13 15 0 2372.61 2412.6 2371.5
667 13 12 0 2372.28 2412.31 2375.27
433 18 9 0 2537.23 2414.65 2376.22
445 18 17 0 2550.7 2421.36 2360.36
19382 12 15 0 2539.03 2410.16 2370.88
446 18 15 0 2553.68 2421.74 2362.86
774 13 15 0 2372.85 2404.6 2375.23
1415 7 7 -0.75 2375.38 2415.37 2361.91
1375 7 9 0 2377.23 2405.34 2360.85
473 18 12 0 2540.36 2421.35 2373.6
19383 12 15 0 2534.45 2404.46 2371.14
19387 12 15 0 2536.03 2407.96 2370.61
772 13 4 0 2376.06 2404.24 2376.88
489 18 15 0 2538.63 2421.66 2377.01
424 18 15 0 2534.76 2421.85 2375.99
2173 49 9 0 2376.76 2422.09 2372.44
19436 12 9 0 2533.98 2407.7 2377.05
419 18 2 0 2536.59 2420.26 2362.9
19406 12 12 0 2538.17 2411.3 2357.28
19385 12 15 0 2540.21 2407.49 2377.11
19386 12 15 0 2540.69 2403.76 2377.74
2170 49 12 0 2373.06 2420.46 2377.48
1378 7 4 0 2375.96 2412.9 2359.12
590 13 9 0 2370.63 2414.63 2357.58
19411 12 12 0 2534.56 2410.2 2356.82
19414 12 15 0 2541.76 2409.78 2357.35
7771 187 12 0 2360.51 2404.33 2534.37
1537 43 9 0 2381.84 2402.23 2375.32
1445 7 15 0 2387.59 2402.02 2377.9
1350 7 12 0 2396.58 2400.59 2357.68
2171 49 18 0 2378.79 2421.82 2369.2
1413 7 4 0 2378.44 2414.73 2364.06
1374 7 15 0 2380.72 2404.56 2361.7
674 13 15 0 2379.21 2412.5 2370.27
1383 7 12 0 2391.93 2402.38 2369.84
692 13 9 0 2378.87 2406.09 2369.33
675 13 2 0 2380.8 2409.51 2368.61
1399 7 2 0 2394.97 2403.94 2368.2
1455 7 2 0 2384.44 2401.38 2365.08
1398 7 9 0 2394.31 2406.35 2365.58
1391 7 18 0 2393.39 2404.14 2362.62
1456 7 15 0 2386.12 2404.51 2364.37
1414 7 15 0 2379.95 2417.93 2365.09
1458 7 15 0 2387.85 2406.97 2366.52
1460 7 12 0 2386.61 2405.62 2369.9
1461 7 15 0 2387.05 2405.99 2373.65
1459 7 15 0 2390.64 2405.24 2374.63
1418 7 2 0 2383.4 2416.53 2365.92
1419 7 9 0 2385.73 2413.5 2366.63
1420 7 2 0 2388.25 2413.34 2363.42
1365 7 15 0 2382.54 2407.65 2362.4
1370 7 9 0 2384.01 2410.61 2360.31
1400 7 15 0 2387.01 2411.75 2358.19
1416 7 15 0 2390.54 2412.68 2359.12
1417 7 12 0 2391.46 2411.78 2362.73
1448 7 12 0 2393.25 2403.47 2376.73
2770 50 12 0 2395 2408.87 2373.22
2798 50 12 0 2397.68 2406.81 2372.47
2769 50 18 0 2392.03 2410.13 2371.42
768 13 18 0 2382.53 2416.08 2374.22
776 13 12 0 2383.67 2418.71 2371.88
777 13 12 0 2384.75 2422.31 2372.17
1397 7 12 0 2397.92 2408.32 2359.77
1390 7 12 0 2390.76 2403.53 2360.27
2768 50 15 0 2390.73 2413.25 2369.86
696 13 4 0 2396.56 2414.42 2364.65
780 13 9 0 2385.78 2420.49 2357.4
699 13 12 0 2395.8 2417.59 2366.93
2771 50 9 0 2390.16 2416.63 2371.38
770 13 15 0 2379.09 2409.57 2376.31
771 13 18 0 2382.36 2409.44 2374.4
2178 49 6 0 2396.58 2421.6 2373.51
791 13 6 0 2399.97 2415.09 2363.49
698 13 15 0 2394.38 2419.81 2364.08
769 13 6 0 2384.19 2412.74 2373.38
2181 49 2 0 2397.86 2418 2372.98
779 13 2 0 2386.19 2422.54 2368.65
2772 50 2 0 2392.65 2418 2373.85
2194 49 15 0 2398.83 2415.72 2377.76
2182 49 9 0 2398.61 2414.35 2374.31
1387 7 15 0 2389.49 2406.9 2359.03
783 13 18 0 2386.17 2417.7 2359.78
775 13 2 0 2386.8 2419.83 2363.05
778 13 9 0 2388.58 2421.97 2365.44
697 13 9 0 2392.55 2419.43 2360.73
700 13 2 0 2395.08 2420.31 2358.31
741 13 6 0 2398.41 2422.19 2358.68
2187 49 15 0 2388.34 2422.09 2376.56
265 14 9 0 2397.77 2415.44 2356.28
2767 50 2 0 2394.28 2416.94 2377.25
2186 49 12 0 2387.44 2418.9 2378.25
19493 54 12 0 2559.11 2420.7 2377.64
1388 7 15 0 2392.13 2407.33 2356.12
1389 7 12 0 2394.88 2408.98 2357.72
592 13 18 0 2379.21 2417.21 2357.62
591 13 15 0 2382.02 2415.11 2356.84
1385 7 2 0 2384.9 2403.73 2359.17
2797 50 15 0 2401.26 2408 2373.53
1405 7 9 0 2401.14 2408.35 2367.17
1404 7 18 0 2402.38 2404.83 2366.52
1406 7 6 0 2400.91 2411.87 2368.97
266 14 2 0 2401.45 2414.23 2356.62
1393 7 4 0 2403.64 2402.18 2368.78
189 14 15 0 2416.21 2400.58 2369.7
1974 43 12 0 2406.83 2401.33 2377.03
2796 50 9 0 2404.92 2408.82 2373.84
1396 7 15 0 2400.75 2406.12 2358.29
190 14 15 0 2416.26 2402.37 2366.38
2792 50 15 0 2406.76 2411.57 2372.11
1975 43 18 0 2400.98 2403.75 2377.34
187 14 12 0 2415.52 2405.91 2365.73
868 8 15 0 2410.12 2401.24 2368.84
1973 43 2 0 2403.89 2402.7 2375.21
1408 7 2 0 2403.23 2414.79 2367.8
8718 195 12 0 2416.3 2418.36 2536.15
1401 7 9 0 2402.88 2403.09 2357.7
1409 7 9 0 2406.95 2414.96 2366.75
1410 7 15 0 2408.86 2416.87 2369.65
892 8 4 0 2408.04 2413.46 2377.83
267 14 15 0 2403.37 2412.58 2359.59
269 14 15 0 2406.77 2402.46 2362.05
263 14 4 0 2406.8 2413.63 2360.47
188 14 15 0 2407.39 2405.43 2364.12
1407 7 12 0 2409.58 2416.99 2373.41
184 14 12 0 2408.45 2407.99 2366.36
889 8 2 0 2410.81 2408.76 2373.46
890 8 15 0 2410.96 2411.85 2375.48
895 8 15 0 2413.16 2409.8 2370.86
888 8 9 0 2416.38 2408.56 2372.46
871 8 2 0 2415.39 2406.27 2375.37
870 8 15 0 2411.28 2404.55 2370.63
877 8 15 0 2412.3 2404.16 2374.39
185 14 15 0 2411.19 2410.42 2365.83
227 14 15 0 2413.71 2414.43 2368.91
234 14 9 0 2416.36 2415.76 2371.61
186 14 15 0 2415.04 2409.76 2365.98
226 14 12 0 2414.65 2415.44 2365.23
225 14 12 0 2413.4 2418.88 2364.36
842 8 12 0 2419.29 2404.9 2358.34
852 8 12 0 2420.14 2413.01 2367.16
291 14 17 0 2419.57 2416.17 2373.45
1463 7 4 0 2408.82 2419.67 2375.75
8719 195 12 0 2412.17 2412.37 2536.82
792 13 12 0 2401.06 2418.67 2363.01
8720 195 15 0 2414.74 2415.01 2537.44
995 8 15 0 2420.31 2406.75 2378.02
1053 15 15 0 2419.01 2420.64 2363.46
766 8 15 0 2421.11 2409.61 2368.5
2794 50 15 0 2403.97 2418.32 2371.75
2793 50 2 0 2403.91 2414.32 2372.71
790 13 12 0 2403.25 2419.09 2359.79
262 14 2 0 2407.45 2409.99 2361.58
2791 50 12 0 2401.48 2419.86 2369.36
268 14 2 0 2409.82 2402.07 2359.76
1427 7 4 0 2416.31 2414.89 2378.19
1428 7 12 0 2416.04 2418.76 2377.25
224 14 12 0 2410.23 2418.52 2362.19
264 14 2 0 2409.26 2407.29 2359.79
183 14 9 0 2412.25 2405.31 2359.69
1052 15 15 0 2421.4 2418.69 2361.11
757 8 2 0 2422.56 2404.61 2364.41
756 8 12 0 2422.05 2405.4 2360.97
853 8 12 0 2421.08 2412.06 2363.59
758 8 9 0 2422.57 2406.61 2367.7
854 8 12 0 2419.41 2411.14 2360.38
701 13 1 0 2413.89 2422.71 2372.08
793 13 4 0 2405.68 2421.86 2358.39
215 14 2 0 2411.86 2421.7 2360.28
1055 15 12 0 2418.75 2422.06 2367.09
1056 15 12 0 2421.17 2421.37 2369.95
2195 49 4 0 2402.19 2420.77 2378.06
855 8 2 0 2421.25 2410.66 2357.12
8722 195 17 0 2413.64 2410.56 2533.98
18966 9 12 0 2439.78 2401.01 2369.58
18944 9 9 0 2442.26 2410.5 2356.33
18949 9 4 0 2440.54 2403.06 2372.73
9209 189 15 0 2441.63 2402.04 2537.58
292 14 18 0 2423.21 2415.53 2374.08
9207 189 12 0 2443.15 2403.48 2534.26
290 14 18 0 2422.99 2414.15 2377.48
18952 9 18 0 2437.02 2403.96 2374.2
1051 15 9 0 2425.07 2418.93 2361.57
18942 9 12 0 2444.06 2409.2 2362.98
9208 189 15 0 2439.37 2402.91 2540.69
990 8 9 0 2423.14 2407.24 2375.87
9211 189 9 0 2436.09 2404.86 2540.84
9210 189 18 0 2436.66 2405.49 2537.04
18983 9 15 0 2435.73 2413.66 2368.32
17978 9 2 0 2428.54 2405.29 2374.84
17977 9 9 0 2428.18 2405 2371.2
19042 9 9 0 2435.81 2415.46 2371.71
989 8 15 0 2425.3 2409.69 2373.79
19041 9 15 0 2439.37 2416 2372.91
19033 9 2 0 2442.01 2414.05 2374.99
18974 9 4 0 2436.31 2408.96 2370.54
988 8 12 0 2426.44 2411.79 2371
18091 9 15 0 2432.13 2405.77 2370.93
18968 9 12 0 2433.23 2408.96 2372.86
18972 9 6 0 2439.06 2408 2367.85
1067 15 15 0 2432.19 2417 2361.49
1066 15 12 0 2431.41 2418.34 2365.1
1065 15 15 0 2432.04 2419.09 2368.68
1064 15 15 0 2430.34 2418.14 2372.14
881 8 12 0 2429.57 2412.32 2368.77
18981 9 12 0 2435.82 2412.08 2364.8
18971 9 12 0 2441.99 2407.36 2365.49
880 8 18 0 2428.5 2403.8 2364.86
884 8 2 0 2429.47 2409.23 2366.84
885 8 9 0 2429.35 2407.39 2363.38
18980 9 12 0 2438.25 2412.24 2362.04
1061 15 9 0 2427.53 2419.89 2373.84
1037 15 12 0 2431.16 2415.54 2377.27
18977 9 9 0 2439.7 2421.03 2365.36
1033 15 15 0 2432.48 2419.29 2377.28
19038 9 12 0 2443.03 2421.18 2372.34
18976 9 15 0 2438.61 2418.01 2363.27
18951 9 9 0 2434.81 2404.64 2377.16
18950 9 6 0 2431.45 2403.23 2376.24
18979 9 18 0 2439.62 2415.3 2361.13