
18750 atoms
2 atom types
18625 bonds
1 bond types

# rho = 0.05 Lxyz 72.1124785154 center 340
303.9437607423000 376.05623925770000 xlo xhi
303.9437607423000 376.05623925770000 ylo yhi
303.9437607423000 376.05623925770000 zlo zhi

Masses

1 1
2 1

Atoms # full

77 1 2 0 329.311 328.596 328.477
81 1 2 0 328.476 327.986 328.272
17 1 2 0 328.286 327.243 327.547
18 1 1 0 328.05 327.117 328.619
16 1 2 0 327.838 327.954 327.492
13 1 2 0 327.678 329.174 327.718
82 1 1 0 328.661 328.304 329.223
14 1 2 0 327.092 328.796 327.58
21 1 2 0 327.099 329.614 328.443
76 1 2 0 328.366 329.155 328.734
15047 101 2 0 329.823 328.396 353.534
20 1 2 0 327.527 328.671 328.504
19 1 2 0 327.323 327.63 328.573
15344 103 2 0 339.886 331.003 352.928
3105 21 2 0 329.273 353.838 328.667
3720 25 2 0 353.7 353.219 327.854
3721 25 2 0 353.215 353.966 327.586
15343 103 2 0 339.858 331.741 353.678
18041 121 2 0 329.202 353.36 353.388
78 1 2 0 329.905 328.253 328.527
5948 40 2 0 351.749 338.084 337.662
80 1 2 0 329.142 327.811 327.682
79 1 2 0 329.792 327.518 327.749
106 1 2 0 330.615 327.975 327.817
116 1 2 0 331.32 328.862 328.962
114 1 2 0 331.798 327.932 329.32
117 1 2 0 331.524 329.165 328.125
105 1 2 0 330.53 328.967 328.111
128 1 2 0 331.273 328.816 327.199
3108 21 2 0 330.756 353.315 327.88
688 5 2 0 350.498 326.849 329.414
127 1 2 0 331.439 329.655 327.265
15045 101 2 0 330.287 329.275 353.313
107 1 2 0 331.548 328.025 328.17
112 1 2 0 332.278 329.227 329.445
135 1 2 0 331.559 326.978 327.318
126 1 2 0 332.32 329.533 327.592
137 1 2 0 332.78 327.535 328.304
108 1 2 0 331.909 328.088 327.549
110 1 2 0 332.46 328.461 328.412
109 1 2 0 332.868 328.226 327.635
165 2 2 0 334.204 327.172 328.118
218 2 1 0 333.626 328.675 328.872
168 2 1 0 333.94 327.523 329.029
111 1 1 0 332.641 329.108 328.814
219 2 2 0 333.697 328.89 327.906
216 2 2 0 334.534 328.86 328.731
162 2 2 0 333.423 328.603 326.904
230 2 2 0 334.617 329.061 327.045
213 2 2 0 335.25 327.231 329.599
3454 24 1 0 344.817 353.284 327.731
166 2 2 0 333.571 326.811 328.298
163 2 2 0 333.481 327.682 327.153
138 1 2 0 332.943 327.284 329.278
132 1 1 0 332.256 327.315 326.672
215 2 2 0 334.74 328.295 327.843
214 2 2 0 334.883 327.838 328.666
15294 102 2 0 335.736 328.452 354.462
223 2 2 0 335.249 329.317 329.477
284 2 2 0 337.022 327.293 328.149
233 2 2 0 335.394 327.599 327.485
9723 65 2 0 351.791 339.203 337.495
16398 110 2 0 348.942 334.855 353.404
285 2 2 0 336.788 327.065 327.014
324 3 2 0 336.875 329.099 329.235
222 2 2 0 334.857 329.923 329.016
282 2 1 0 336.741 328.748 328.365
3504 24 1 0 346.051 353.208 329.268
283 2 2 0 337.107 327.97 328.73
15293 102 2 0 336.479 328.039 353.854
212 2 2 0 334.794 328.002 329.66
9568 64 1 0 345.532 339.756 339.214
317 3 2 0 338.941 328.752 326.923
3310 23 2 0 338.7 354.313 327.716
280 2 2 0 337.931 328.87 327.354
281 2 2 0 337.305 328.72 328.145
319 3 2 0 339.576 328.32 327.942
320 3 2 0 339.553 328.648 328.808
321 3 2 0 338.699 328.547 329.366
9690 65 2 0 352.184 339.791 338.211
3309 23 2 0 337.801 354.125 327.757
411 3 1 0 339.244 327.516 328.345
3305 23 2 0 337.939 353.71 328.747
410 3 2 0 339.505 327.804 329.32
276 2 2 0 338.322 328.46 328.537
3304 23 1 0 337.231 353.536 329.415
275 2 1 0 337.891 329.175 328.837
322 3 2 0 337.951 328.777 330.03
323 3 2 0 337.68 328.302 329.518
5893 40 2 0 350.749 339.131 337.915
412 3 2 0 339.987 327.375 327.814
415 3 2 0 341.003 326.966 328.5
440 3 2 0 340.243 326.516 326.826
416 3 2 0 340.779 327.752 328.204
443 3 2 0 342.038 327.052 328.669
442 3 2 0 341.853 327.476 327.52
417 3 2 0 340.379 328.521 328.348
235 2 2 0 336.282 327.317 329.008
15475 104 1 0 341.752 329.26 353.604
418 3 1 0 341.101 329.051 328.427
461 4 1 0 342.257 329.399 328.435
376 3 2 0 341.38 328.693 329.427
460 4 2 0 341.924 328.466 328.203
435 3 2 0 340.441 328.257 327.116
434 3 2 0 341.306 328.365 327.464
441 3 2 0 340.888 327.009 327.364
462 4 2 0 342.737 329.351 327.567
419 3 2 0 340.317 329.289 328.978
377 3 2 0 340.487 328.456 329.485
234 2 2 0 335.795 327.448 328.162
445 3 2 0 342.176 327.983 329.201
408 3 2 0 341.122 327.325 329.595
3457 24 2 0 342.932 353.708 328.669
465 4 2 0 344.694 328.506 327.36
459 4 2 0 342.608 328.191 327.738
464 4 2 0 343.774 329.146 327.122
458 4 2 0 342.925 328.389 328.689
466 4 2 0 344.85 328.469 328.156
3456 24 2 0 343.268 353.485 327.779
513 4 2 0 343.78 329.025 328.241
515 4 2 0 345.292 329.305 328.658
467 4 2 0 343.842 327.977 328.237
468 4 1 0 344.444 327.6 328.533
470 4 2 0 343.114 327.783 329.619
535 4 2 0 345.675 329.002 327.713
3452 24 2 0 343.706 354.153 327.098
514 4 2 0 344.436 329.386 328.91
9676 65 2 0 350.315 338.52 339.499
3453 24 2 0 344.592 353.797 327.475
526 4 2 0 345.732 328.31 328.648
533 4 2 0 346.587 327.619 327.391
588 4 2 0 347.007 328.076 328.366
524 4 2 0 346.291 327.853 329.264
534 4 2 0 346.46 328.546 327.425
548 4 2 0 347.535 328.459 327.503
550 4 2 0 346.856 329.077 328.547
525 4 1 0 345.862 327.405 328.367
549 4 2 0 347.568 329.29 327.772
15632 105 1 0 347.614 327.253 353.644
590 4 2 0 347.1 327.283 329.013
551 4 2 0 346.913 328.589 329.425
586 4 2 0 347.856 329.387 329.235
589 4 1 0 346.887 326.893 328.173
527 4 2 0 345.523 328.011 327.474
15507 104 2 0 346.216 329.74 353.314
8084 54 2 0 347.299 327.205 339.231
9691 65 2 0 351.2 339.671 338.643
4267 29 2 0 345.192 326.583 335.743
587 4 2 0 347.922 328.584 328.695
15633 105 2 0 347.826 327.358 354.309
615 5 2 0 349.94 328.903 327.564
7089 48 1 0 340.022 353.26 337.992
15634 105 2 0 348.773 327.226 354.025
670 5 2 0 349.92 328.112 328.625
15635 105 2 0 348.431 328.218 354.138
658 5 2 0 348.939 327.607 328.908
15636 105 2 0 348.655 329.044 353.69
657 5 2 0 348.672 328.509 329.423
15657 105 2 0 349.358 327.971 353.767
678 5 2 0 349.786 327.096 327.866
614 5 2 0 349.504 329.747 327.414
620 5 2 0 349.102 328.828 328.582
621 5 2 0 348.915 329.514 329.345
1555 11 2 0 329.322 339.422 329.163
672 5 2 0 350.388 327.954 327.432
669 5 2 0 350.831 328.788 329.174
671 5 2 0 350.93 327.78 328.16
730 5 2 0 352.311 328.573 327.743
733 5 2 0 353.086 328.216 329.108
732 5 1 0 351.885 328.489 329.16
731 5 2 0 351.743 328.437 328.407
694 5 2 0 352.684 329.143 328.837
729 5 2 0 351.813 327.603 327.876
697 5 2 0 351.598 329.406 328.695
16401 110 2 0 347.28 334.275 353.297
738 5 2 0 351.997 327.703 329.994
699 5 2 0 352.453 329.94 327.491
734 5 2 0 352.723 327.89 328.512
616 5 2 0 350.851 328.873 328
9735 65 2 0 352.417 337.987 339.504
286 2 2 0 336.111 326.888 327.289
692 5 2 0 351.239 328.452 330.176
10659 72 2 0 332.462 353.282 339.176
10724 72 2 0 333.695 353.182 338.936
12 1 2 0 328.667 329.162 327.457
10 1 2 0 328.085 330.18 327.71
723 5 2 0 353.389 329.845 327.191
75 1 1 0 328.721 329.93 328.508
11 1 1 0 328.943 330.191 327.264
9 1 2 0 327.694 330.996 327.779
4 1 1 0 328.576 330.942 328.119
6 1 2 0 327.641 330.699 329.491
3 1 2 0 328.79 331.77 327.337
8 1 2 0 327.119 330.518 327.952
5 1 2 0 327.873 331.459 328.815
1 1 2 0 327.139 331.823 328.161
800 6 2 0 327.168 332.385 329.032
7 1 2 0 326.875 330.797 328.919
799 6 2 0 327.061 331.629 329.744
815 6 2 0 328.412 332.033 329.442
15046 101 1 0 329.605 329.463 353.914
95 1 2 0 329.798 329.637 328.725
68 1 1 0 329.281 330.759 329.025
832 6 1 0 329.375 331.56 328.296
15147 101 2 0 329.705 331.147 353.579
104 1 1 0 330.721 329.776 327.91
103 1 2 0 330.692 330.116 328.58
119 1 2 0 331.35 329.991 329.286
118 1 1 0 331.798 330.165 328.596
97 1 2 0 330.427 331.123 328.112
98 1 2 0 331.164 331.041 328.536
15182 102 1 0 331.23 330.656 353.856
96 1 1 0 329.637 330.369 328.104
15146 101 1 0 330.201 330.453 353.452
153 2 2 0 332.189 331.945 328.623
15181 102 2 0 331.181 331.544 353.585
830 6 2 0 330.517 332.127 327.85
99 1 2 0 331.407 331.501 328.95
102 1 2 0 330.316 330.329 329.226
217 2 2 0 334.063 329.085 329.248
125 1 1 0 332.979 330.194 328.281
152 2 2 0 331.956 331.949 327.784
15183 102 2 0 332.104 330.923 353.461
154 2 1 0 332.284 331.007 328.129
124 1 2 0 333.424 329.968 329.076
123 1 2 0 333.308 330.935 328.887
155 2 2 0 333.054 331.428 327.989
156 2 2 0 333.853 330.898 327.63
151 2 2 0 332.646 332.289 327.673
220 2 2 0 334.385 329.604 328.079
886 6 2 0 333.595 332.018 328.892
157 2 2 0 334.5 330.313 327.351
15186 102 2 0 333.683 331.649 353.357
243 2 2 0 334.942 331.805 329.078
159 2 2 0 333.486 329.811 327.285
885 6 2 0 333.913 331.999 328.139
244 2 2 0 334.332 330.917 328.746
122 1 2 0 332.773 331.521 329.298
224 2 2 0 335.955 329.327 328.741
245 2 2 0 334.911 330.516 328.251
15340 103 2 0 337.912 333.229 353.453
248 2 2 0 334.91 331.498 327.933
249 2 2 0 334.973 331.124 327.135
229 2 2 0 335.208 329.765 327.038
221 2 2 0 335.109 329.334 328.108
247 2 2 0 335.679 331.196 328.494
227 2 2 0 335.889 330.482 327.521
251 2 2 0 336.487 331.422 327.472
246 2 1 0 335.772 330.236 328.619
226 2 2 0 336.725 330.571 328.082
225 2 1 0 336.811 329.827 328.532
240 2 2 0 336.486 330.471 329.266
252 2 2 0 337.336 331.59 327.554
254 2 1 0 336.685 331.394 329.313
272 2 2 0 337.101 330.321 327.13
253 2 2 0 336.906 331.595 328.4
250 2 2 0 335.641 331.412 327.337
273 2 2 0 337.109 329.463 327.394
15296 102 1 0 336.134 329.399 353.944
325 3 1 0 337.152 329.643 329.571
315 3 2 0 339.629 329.226 327.523
279 2 2 0 338.33 329.55 327.177
274 2 2 0 337.693 329.763 327.966
304 3 1 0 337.468 330.613 329.074
5355 36 2 0 330.01 339.672 335.537
312 3 2 0 338.94 329.453 329.048
305 3 2 0 337.704 330.777 328.248
306 3 2 0 337.95 330.706 327.62
277 2 2 0 338.69 329.151 328.069
311 3 1 0 338.627 330.568 329.049
310 3 2 0 339.543 330.803 329.047
303 3 2 0 337.883 331.54 328.822
307 3 2 0 338.742 330.988 328.178
308 3 2 0 339.649 330.902 327.947
278 2 2 0 338.893 330.178 327.643
314 3 2 0 340.14 330.004 327.968
313 3 2 0 339.48 329.795 328.509
309 3 2 0 339.44 331.723 328.388
302 3 2 0 337.719 332.494 328.455
15342 103 2 0 338.87 331.475 353.594
2077 14 2 0 346.719 340.102 327.728
375 3 1 0 341.607 329.716 329.246
422 3 2 0 340.817 330.674 327.48
421 3 2 0 340.451 330.798 328.566
420 3 2 0 340.295 329.987 329.15
433 3 2 0 340.733 329.292 327.512
432 3 1 0 341.398 330.047 328.096
431 3 2 0 342.018 330.481 327.722
454 4 1 0 342.84 330.1 329.402
453 4 2 0 342.279 330.457 328.918
1186 8 2 0 341.752 331.667 327.738
452 4 2 0 342.715 330.907 328.854
423 3 2 0 340.885 331.437 326.951
1189 8 1 0 341.462 331.32 328.604
771 6 2 0 327.001 332.468 326.956
1190 8 2 0 341.216 331.126 329.308
536 4 2 0 344.778 329.488 327.759
512 4 2 0 343.769 329.822 327.831
457 4 2 0 343.436 329.306 329.076
5795 39 2 0 346.299 339.655 337.608
430 3 2 0 342.824 330.667 327.658
511 4 1 0 343.245 330.032 328.409
510 4 2 0 344.341 330.261 328.52
509 4 2 0 344.337 330.814 327.911
455 4 2 0 343.629 330.562 329.221
537 4 2 0 345.198 330.12 328.132
451 4 2 0 342.616 331.486 328.305
508 4 2 0 343.559 331.225 328.312
1216 9 2 0 343.179 332.042 329.069
15501 104 2 0 343.78 331.735 353.805
507 4 2 0 344.138 331.388 328.899
1335 9 2 0 345.047 331.999 328.614
15502 104 2 0 343.551 331.049 353.418
570 4 2 0 344.846 331.768 327.637
1337 9 2 0 344.801 330.601 329.292
1336 9 2 0 345.279 330.976 328.654
15506 104 2 0 345.494 329.915 353.509
538 4 2 0 346.112 329.828 328.104
540 4 2 0 347.111 330.201 327.318
563 4 2 0 347.489 330.812 328.951
539 4 1 0 346.239 330.593 327.916
569 4 2 0 345.389 331.146 327.639
565 4 2 0 347.1 331.349 327.615
567 4 2 0 346.632 331.848 326.839
568 4 1 0 345.991 331.777 327.902
561 4 1 0 346.55 330.371 328.942
560 4 2 0 346.592 331.414 328.615
566 4 2 0 347.195 332.259 327.081
562 4 2 0 347.065 330.102 328.373
564 4 2 0 347.798 330.786 328.11
541 4 2 0 347.855 330.335 327.181
559 4 2 0 347.61 331.844 328.52
1338 9 2 0 345.581 330.245 329.306
15907 107 2 0 331.996 337.228 353.432
584 4 2 0 348.519 329.705 328.292
585 4 2 0 348.379 330.404 328.859
582 4 1 0 348.572 331.149 327.444
583 4 2 0 348.868 330.508 327.836
605 5 2 0 348.744 331.28 328.593
604 5 1 0 349.63 331.488 328.045
612 5 2 0 350.771 330.701 328.172
618 5 1 0 350.014 330.447 328.745
613 5 2 0 350.153 330.369 327.505
606 5 2 0 349.129 330.976 329.25
619 5 2 0 349.61 329.591 328.501
603 5 2 0 349.099 332.209 327.932
1538 11 2 0 327.447 339.849 331.828
611 5 1 0 350.5 331.319 327.295
704 5 1 0 350.876 330.88 329.428
668 5 1 0 350.6 329.732 329.305
15639 105 1 0 349.462 330.994 353.249
609 5 2 0 350.564 331.997 328.177
558 4 2 0 348.168 331.828 329.179
5891 40 2 0 350.211 339.842 337.276
15649 105 2 0 351.241 329.905 353.698
698 5 2 0 351.922 329.477 327.925
617 5 2 0 350.631 329.784 328.244
610 5 2 0 351.18 331.577 327.829
695 5 2 0 352.49 329.949 328.694
696 5 1 0 351.552 330.05 328.957
703 5 2 0 351.484 331.098 328.909
702 5 2 0 352.117 331.461 328.411
700 5 2 0 351.831 330.443 327.932
701 5 2 0 352.506 330.924 328.224
768 6 1 0 325.554 331.803 327.087
2 1 2 0 327.864 332.119 327.745
15899 106 2 0 327.777 333.193 353.994
801 6 2 0 327.688 332.555 328.75
819 6 2 0 328.744 333.873 327.338
816 6 2 0 328.668 332.372 328.563
818 6 1 0 328.292 333.917 328.323
817 6 2 0 328.49 333.07 328.414
775 6 1 0 327.81 334.804 328.647
15898 106 2 0 328.656 332.784 353.737
846 6 1 0 328.844 334.601 328.968
839 6 1 0 329.031 333.527 329.233
802 6 2 0 327.6 333.271 329.194
825 6 1 0 329.351 334.105 328.211
772 6 2 0 326.299 332.62 327.476
824 6 2 0 328.763 334.809 327.885
15786 106 2 0 327.668 334.372 353.915
774 6 2 0 327.103 333.865 328.591
831 6 2 0 329.804 332.359 328.306
833 6 2 0 329.913 331.716 329.053
826 6 2 0 329.854 333.398 328.594
845 6 2 0 329.888 334.359 329.325
829 6 2 0 330.615 332.731 327.154
838 6 2 0 329.698 332.933 329.573
880 6 2 0 331.44 332.782 328.091
876 6 2 0 331.534 333.976 328.694
827 6 2 0 330.459 333.082 328.212
828 6 2 0 330.836 333.565 327.713
877 6 2 0 330.787 333.548 329.371
875 6 1 0 331.871 334.165 327.903
874 6 2 0 331.162 334.54 327.908
15896 106 1 0 329.624 333.202 353.877
873 6 2 0 330.489 334.275 328.35
15895 106 2 0 330.124 334.175 353.532
881 6 2 0 332.142 333.063 328.208
868 6 1 0 331.844 335.282 327.775
853 6 2 0 330.927 334.708 329.361
879 6 2 0 331.488 332.502 329.018
15926 107 2 0 331.919 332.653 353.423
15932 107 1 0 332.454 334.433 353.315
882 6 1 0 332.847 333.667 327.761
918 7 1 0 332.617 334.581 328.534
919 7 2 0 332.902 333.585 329.079
883 6 2 0 333.479 332.851 328.33
988 7 2 0 334.785 332.732 327.778
884 6 2 0 333.462 332.768 327.462
983 7 2 0 333.957 333.726 327.733
982 7 1 0 333.638 334.123 328.548
920 7 2 0 332.717 332.681 329.188
963 7 2 0 333.565 333.302 329.84
964 7 2 0 334.026 332.714 329.639
995 7 2 0 334.862 334.208 328.93
15946 107 1 0 333.568 334.597 353.749
981 7 2 0 333.74 335.023 328.765
996 7 1 0 334.746 334.45 327.968
990 7 2 0 334.488 333.293 328.504
984 7 2 0 334.747 333.814 327.189
989 7 1 0 335.31 333.593 328.207
987 7 2 0 335.504 332.278 328.316
986 7 2 0 335.74 332.714 327.283
991 7 2 0 335.157 332.962 329.22
1000 7 2 0 337.04 333.362 328.172
1001 7 2 0 337.065 333.524 328.851
999 7 2 0 336.399 333.728 327.764
974 7 2 0 335.897 334.123 328.801
257 2 2 0 336.744 332.378 327.742
255 2 2 0 336.266 332.05 329.117
256 2 2 0 336.379 332.554 328.269
998 7 2 0 336.523 334.254 327.196
992 7 2 0 336.053 333.151 329.12
1040 7 2 0 337.293 332.607 329.29
1002 7 2 0 337.594 334.622 329.144
975 7 1 0 336.332 335.009 328.837
1035 7 2 0 337.943 333.723 328.137
1137 8 2 0 338.628 334.093 327.439
301 3 2 0 338.457 332.412 328.137
1036 7 2 0 338.495 333.889 328.78
1038 7 2 0 338.196 332.305 329.522
1037 7 2 0 338.487 333.07 329.07
1135 8 2 0 339.33 332.91 328.415
1136 8 2 0 338.842 333.462 327.949
1134 8 2 0 340.274 332.375 328.392
1150 8 2 0 339.154 334.662 329.111
15341 103 2 0 338.206 332.031 353.673
15338 103 2 0 338.953 332.915 353.325
1590 11 2 0 329.649 339.856 332.486
1140 8 2 0 339.48 333.805 326.944
1034 7 2 0 337.6 334.215 327.334
9280 62 2 0 337.558 339.968 338.53
1187 8 2 0 341.256 332.37 328.19
1148 8 2 0 340.101 333.006 329.236
15337 103 2 0 339.8 332.913 353.637
1188 8 2 0 340.804 331.553 328.057
1133 8 2 0 340.745 332.212 329.13
1147 8 2 0 340.829 333.217 328.943
1144 8 2 0 340.631 334.581 328.147
1145 8 2 0 341.055 333.668 328.036
1183 8 2 0 341.827 333.534 327.304
1184 8 2 0 341.335 332.867 327.077
1264 9 2 0 342.203 332.411 328.807
1185 8 2 0 342.074 332.427 327.336
1146 8 1 0 340.622 333.108 327.876
1208 9 2 0 341.697 334.091 328.78
1178 8 2 0 341.077 335.136 329.026
1209 9 2 0 341.919 333.274 328.599
1191 8 2 0 341.563 331.914 329.595
1263 9 2 0 342.612 332.859 329.603
1215 9 2 0 343.875 332.161 328.4
1265 9 2 0 342.732 332.684 328.168
1210 9 2 0 342.621 333.833 328.249
1214 9 2 0 343.694 333.098 328.002
1211 9 1 0 343.249 334.07 327.646
1288 9 2 0 344.424 334.008 327.334
1268 9 1 0 344.276 333.876 328.368
1269 9 2 0 344.817 334.016 328.945
1212 9 2 0 342.856 333.152 327.298
1261 9 1 0 343.358 334.212 328.886
16382 110 1 0 345.102 334.674 354.453
1266 9 2 0 343.296 333.109 328.936
1262 9 2 0 342.57 333.756 329.373
1334 9 2 0 344.915 332.506 328.78
1275 9 1 0 344.169 334.935 328.991
1267 9 2 0 344.184 333.238 328.902
1213 9 2 0 343.63 333.275 327.165
1287 9 2 0 344.756 333.271 327.683
16379 110 2 0 346.269 333.997 353.35
1286 9 2 0 345.502 332.632 327.668
16380 110 2 0 345.66 333.799 353.908
1284 9 2 0 345.791 333.409 329.183
1285 9 2 0 345.807 333.001 328.295
1327 9 2 0 347.151 333.461 327.584
1326 9 2 0 346.681 334.189 328.132
1331 9 2 0 346.859 333.269 328.624
16381 110 2 0 345.616 334.004 354.547
1329 9 2 0 346.692 332.561 327.964
1328 9 2 0 346.484 333.066 327.435
1332 9 1 0 346.14 332.311 328.843
1330 9 2 0 347.627 332.734 328.199
1325 9 1 0 347.169 334.213 329.035
1324 9 2 0 346.108 334.439 329.104
1377 10 2 0 347.853 333.66 328.399
16252 109 2 0 345.204 334.582 353.435
1353 10 2 0 348.232 337.385 327.044
1333 9 2 0 345.594 332.4 329.391
1342 9 2 0 347.276 332.399 329.373
608 5 2 0 350.223 331.461 328.846
602 5 2 0 348.385 332.187 327.972
601 5 2 0 348.087 331.944 327.443
1429 10 2 0 348.839 334.016 327.821
1430 10 2 0 348.213 333.144 327.26
1416 10 2 0 350.134 333.802 328.673
1378 10 2 0 348.499 333.159 328.215
1461 10 1 0 349.73 333.044 327.864
1417 10 2 0 349.065 333.969 328.7
1462 10 2 0 349.431 333.023 328.915
1458 10 2 0 350.195 334.265 327.785
1463 10 2 0 350.215 332.811 328.794
1459 10 2 0 350.554 333.806 327.087
1376 10 2 0 348.121 334.134 329.319
1432 10 1 0 349.766 332.166 327.204
8085 54 2 0 347.532 326.704 339.693
1460 10 2 0 350.443 333.103 327.505
1379 10 2 0 348.331 333.001 329.077
10621 71 2 0 331.495 352.973 339.023
16400 110 2 0 347.556 334.349 353.884
1435 10 2 0 349.464 333.93 326.985
769 6 2 0 326.19 331.667 327.567
711 5 1 0 350.964 332.372 327.11
708 5 2 0 351.86 332.515 329.197
8252 56 2 0 329.807 340.004 338.771
773 6 2 0 326.934 333.154 328.175
765 6 2 0 326.057 333.766 327.069
764 6 2 0 327.036 333.7 327.214
710 5 2 0 351.758 332.306 328.067
709 5 2 0 352.672 332.335 328.62
1480 10 2 0 351.899 333.375 328.047
1464 10 2 0 351.003 333.066 328.54
1479 10 2 0 351.569 333.231 327.35
1465 10 2 0 351.133 334.005 328.223
1481 10 2 0 352.344 333.577 328.942
1466 10 2 0 351.666 334.472 327.563
707 5 2 0 351.094 332.104 328.965
763 6 2 0 326.378 334.287 328.022
1482 10 1 0 353.142 333.758 329.526
1492 10 2 0 351.367 333.463 329.482
822 6 2 0 329.024 334.977 326.874
776 6 2 0 326.898 335.215 328.357
823 6 2 0 328.372 334.863 327.067
847 6 2 0 329.491 335.045 328.712
15788 106 2 0 327.438 335.705 353.394
1472 10 2 0 352.963 336.787 327.913
779 6 2 0 328.242 336.787 328.267
848 6 2 0 328.642 335.774 328.688
849 6 2 0 329.188 336.63 329.094
778 6 2 0 328.224 336.107 327.771
15787 106 2 0 327.726 335.228 354.111
780 6 2 0 328.198 336.675 329.263
777 6 2 0 327.423 335.987 328.54
15798 106 2 0 328.766 337.067 353.728
871 6 2 0 329.47 335.575 327.565
15797 106 2 0 329.265 336.522 354.244
752 6 2 0 327.549 335.467 329.399
1473 10 2 0 353.796 336.725 327.354
15799 106 2 0 328.694 335.971 353.308
15795 106 2 0 330.009 336.904 353.233
872 6 2 0 329.914 334.955 327.778
3104 21 1 0 328.927 353.409 329.324
850 6 2 0 329.658 336.05 328.901
870 6 2 0 330.323 335.928 327.622
856 6 2 0 330.497 336.318 328.452
866 6 2 0 331.476 336.282 328.535
865 6 2 0 332.215 336.372 329.051
855 6 2 0 330.765 335.213 328.447
854 6 1 0 331.614 335.263 328.779
869 6 2 0 330.936 335.465 327.255
867 6 2 0 331.413 336.071 327.942
852 6 2 0 330.237 335.402 329.443
857 6 2 0 330.657 336.288 329.25
862 6 2 0 330.184 337.12 328.923
7198 48 2 0 343.413 353.16 335.732
864 6 2 0 331.584 336.735 329.614
15904 107 1 0 332.829 335.474 353.374
917 7 2 0 332.86 335.093 327.945
916 7 2 0 332.695 335.649 328.482
15945 107 2 0 334.22 335.412 353.943
15903 107 2 0 332.384 336.065 353.752
915 7 2 0 333.317 335.96 327.96
914 7 2 0 333.687 336.473 328.389
1015 7 2 0 334.92 336.295 327.678
15905 107 2 0 333.304 336.171 353.26
15902 107 2 0 332.421 336.812 354.331
978 7 2 0 335.182 335.159 328.628
979 7 2 0 334.724 335.825 328.731
15944 107 2 0 334.568 334.853 353.313
913 7 2 0 333.24 336.38 329.091
1013 7 2 0 335.128 336.728 329.026
1014 7 2 0 334.698 337.069 328.118
15901 107 2 0 333.125 336.897 353.843
980 7 2 0 334.506 335.445 329.34
997 7 2 0 335.559 334.466 327.462
1031 7 2 0 337.107 334.449 328.121
1020 7 2 0 335.583 337.078 327.605
1016 7 2 0 335.524 335.527 327.703
977 7 2 0 335.721 335.877 329.18
1017 7 2 0 336.177 335.255 327.869
1025 7 1 0 337.257 336.399 326.958
1018 7 1 0 336.259 336.127 328.404
1004 7 1 0 336.703 335.893 329.408
1011 7 1 0 336.255 336.936 329.178
1019 7 2 0 335.803 336.526 328.252
1032 7 1 0 337.121 335.624 328.072
1003 7 2 0 337.245 335.608 329.088
1061 8 1 0 337.309 336.648 328.785
15996 107 1 0 336.207 336.298 353.449
15995 107 2 0 336.13 335.388 353.163
1149 8 2 0 339.788 333.824 328.967
1029 7 2 0 338.131 335.031 327.16
1151 8 2 0 339.375 334.538 328.068
1060 8 2 0 337.593 336.512 328.07
1030 7 2 0 338.159 334.745 328.099
1059 8 2 0 338.026 336.979 327.213
1155 8 2 0 338.898 336.19 327.947
1156 8 2 0 339.057 335.552 327.494
1117 8 2 0 338.499 335.485 328.878
1154 8 1 0 339.442 336.706 328.051
7094 48 2 0 339.945 353.208 336.647
1152 8 2 0 340.053 335.384 327.872
1118 8 1 0 338.431 336.483 328.706
1157 8 2 0 339.72 335.833 327.04
1153 8 2 0 340.064 336.326 328.026
10926 73 2 0 340.894 353.436 337.229
1119 8 2 0 339.05 337.069 328.905
1054 8 1 0 338.546 337.37 327.981
1033 7 2 0 337.155 335.157 327.003
1177 8 2 0 341.917 335.418 329.071
1182 8 1 0 342.253 334.374 327.365
1143 8 2 0 340.212 334.527 327.366
1181 8 2 0 341.632 334.709 327.919
1180 8 2 0 341.174 335.591 328.02
1159 8 2 0 340.66 335.938 327.141
1160 8 2 0 341.77 336.323 327.414
1124 8 2 0 341.266 336.469 328.575
1204 9 1 0 342.368 336.789 329.127
1167 8 2 0 342.031 335.334 327.189
1205 9 2 0 342.685 336.092 329.571
1123 8 2 0 340.965 336.823 327.971
1161 8 1 0 342.046 337.238 327.494
1179 8 2 0 340.473 335.434 328.926
1166 8 2 0 341.239 335.103 326.958
1203 9 2 0 342.285 336.293 328.247
1121 8 2 0 340.11 336.809 328.883
6755 46 2 0 329.637 353.252 336.21
1175 8 1 0 342.914 335.3 327.786
1289 9 1 0 343.969 334.804 327.916
5698 38 2 0 342.937 339.287 336.292
1176 8 2 0 342.416 334.816 328.501
1172 8 2 0 343.388 337.143 327.257
1290 9 2 0 343.627 335.736 328.506
1174 8 2 0 343.292 335.708 327.271
1173 8 2 0 342.867 336.432 327.385
1291 9 2 0 344.5 336.028 329.178
16304 109 1 0 344.667 335.642 354.62
16305 109 2 0 344.201 336.286 354.268
16306 109 2 0 344.747 336.703 353.83
16255 109 2 0 344.385 335.622 353.504
1202 9 2 0 342.921 336.966 328.217
1201 9 2 0 343.484 336.787 329.04
1276 9 2 0 345.09 334.97 329.073
2034 14 2 0 344.588 337.105 329.346
2057 14 2 0 343.92 337.291 328.114
1940 13 2 0 342.764 337.239 329.867
6953 47 2 0 336.633 353.325 337.077
16384 110 2 0 346.172 335.204 353.893
1361 10 1 0 347.799 334.981 328.534
2035 14 2 0 344.764 336.83 328.631
16383 110 2 0 345.799 334.931 354.367
3891 26 2 0 331.698 326.803 336.265
16303 109 2 0 345.417 335.99 353.809
1356 10 2 0 346.784 337.489 327.577
1357 10 2 0 346.363 336.653 327.724
1360 10 2 0 347.085 335.269 328.096
1359 10 2 0 347.205 335.763 327.609
1319 9 2 0 346.2 335.695 328.637
1320 9 2 0 345.693 336.203 328.574
1318 9 1 0 346.954 335.344 329.14
1317 9 2 0 346.873 336.093 329.447
1366 10 2 0 347.241 337.012 328.265
1367 10 2 0 347.262 336.336 328.382
1316 9 2 0 346.446 336.573 329.022
1362 10 2 0 348.079 335.24 328.026
1369 10 2 0 347.522 336.915 329.189
1365 10 2 0 347.659 336.683 327.428
2036 14 2 0 345 337.503 328.094
2087 14 2 0 345.515 337.552 329.345
1358 10 2 0 346.557 336.004 327.036
1428 10 2 0 348.99 334.956 328.117
1363 10 2 0 348.34 336.1 328.078
1745 12 2 0 335.984 339.953 327.832
1457 10 2 0 349.857 334.964 327.607
1364 10 2 0 348.347 336.882 328.179
1418 10 1 0 348.796 334.934 329.182
1415 10 2 0 349.815 334.658 328.561
1368 10 1 0 347.964 335.961 328.96
1427 10 2 0 349.138 335.753 328.626
1426 10 2 0 349.92 335.714 328.187
1424 10 2 0 349.583 336.483 329.157
1419 10 2 0 349.465 335.006 329.487
1423 10 2 0 348.831 335.898 329.638
1351 10 2 0 349.275 335.941 327.283
1352 10 2 0 349.014 336.717 327.314
1425 10 1 0 350.475 336.447 328.464
1440 10 2 0 349.979 337.116 327.214
1420 10 2 0 350.096 335.641 329.287
3807 26 2 0 329.404 327.632 336.987
5340 36 2 0 331.095 339.876 336.803
1438 10 2 0 350.422 335.712 326.987
762 6 2 0 325.857 334.752 328.568
1471 10 2 0 352.944 336.626 328.706
781 6 2 0 327.486 336.485 329.608
1439 10 1 0 350.729 336.454 327.496
1469 10 2 0 352.846 335.898 327.485
1470 10 2 0 352.415 335.949 328.509
1413 10 2 0 351.412 335.711 328.266
1467 10 2 0 352.07 335.125 327.451
1468 10 1 0 353.112 334.948 327.334
1414 10 2 0 350.879 335.109 328.209
1411 10 1 0 351.908 337.058 328.648
1412 10 2 0 351.834 336.443 327.823
1499 10 2 0 351.284 335.2 329.233
751 6 2 0 326.673 335.857 329.426
1410 10 2 0 351.175 336.813 329.171
1448 10 2 0 352.316 337.442 327.487
761 6 1 0 326.809 334.812 329.29
1409 10 2 0 351.898 336.303 329.358
15925 107 1 0 331.96 333.358 353.367
1520 11 2 0 327.512 337.399 328.032
4188 28 2 0 342.696 327.084 332.931
16533 111 2 0 327.92 339.363 354.014
1521 11 2 0 328.408 337.756 328.052
1522 11 2 0 328.624 337.584 329.005
1527 11 2 0 328.577 338.678 329.184
1526 11 2 0 328.639 338.876 328.302
2233 15 2 0 353.286 338.992 328.266
2234 15 2 0 353.903 338.462 328.647
16554 111 1 0 328.811 338.452 353.678
16531 111 2 0 327.551 338.449 354.01
16532 111 1 0 327.024 338.988 353.423
5923 40 2 0 351.075 339.644 332.453
1524 11 2 0 329.611 338.077 327.915
2235 15 2 0 352.952 337.719 328.568
1519 11 2 0 327.527 337.416 328.978
1515 11 2 0 328.276 339.639 329.722
8960 60 2 0 350.697 338.101 337.909
2232 15 1 0 353.02 339.905 328.793
16530 111 2 0 326.858 337.875 353.375
5898 40 2 0 351.405 339.914 335.771
15295 102 2 0 335.636 328.658 353.619
1523 11 2 0 329.521 338.146 328.842
16539 111 1 0 329.171 339.484 353.984
1525 11 1 0 329.875 338.645 328.076
16568 111 1 0 329.852 338.685 353.313
15796 106 1 0 329.938 337.11 354.074
1568 11 1 0 330.257 338.939 329.027
863 6 2 0 331.122 337.184 329.07
1669 12 2 0 330.886 336.889 327.567
16561 111 1 0 330.246 339.495 353.847
861 6 1 0 330.398 337.649 328.466
1625 11 1 0 330.97 338.647 328.134
1668 12 1 0 330.468 337.996 327.436
1626 11 2 0 331.603 339.096 328.263
1667 12 2 0 331.259 338.299 327.334
1569 11 2 0 329.663 338.774 329.816
15483 104 2 0 341.786 331.093 353.141
16672 112 2 0 334.298 337.562 353.48
1726 12 2 0 334.835 339.586 327.506
1672 12 2 0 332.683 337.493 328.733
1664 12 2 0 332.596 339.829 327.369
16677 112 2 0 333.013 337.995 353.639
1665 12 2 0 332.065 339.051 327.296
1627 11 2 0 332.614 339.421 328.345
1670 12 2 0 331.525 337.388 328.073
1671 12 2 0 331.981 338.161 327.971
1730 12 2 0 333.612 339.632 328.53
16678 112 2 0 333.667 337.651 354.488
16679 112 2 0 333.008 338.47 354.743
16680 112 2 0 333.366 339.02 353.894
1729 12 2 0 334.097 338.683 328.308
1680 12 2 0 333.147 339.69 329.791
1706 12 2 0 334.539 337.819 328.924
1679 12 2 0 333.334 338.648 329.411
16673 112 2 0 334.314 338.522 353.48
1707 12 2 0 334.071 337.097 329.075
15861 106 1 0 331.352 334.452 353.287
1705 12 2 0 334.436 338.661 329.336
15631 105 2 0 348.401 327.64 353.03
429 3 2 0 342.68 331.588 327.269
1012 7 2 0 335.516 337.409 328.819
1789 12 1 0 336.701 337.056 327.982
1052 8 2 0 337.419 337.722 327.419
3723 25 2 0 352.164 353.648 326.985
1728 12 2 0 334.773 338.079 327.954
1724 12 2 0 335.016 338.746 328.604
721 5 2 0 353.014 330.927 327.088
5581 38 2 0 338.227 340.086 335.012
1790 12 2 0 336.363 337.916 328.458
1748 12 2 0 336.316 338.878 327.678
1727 12 2 0 335.264 338.819 327.685
1747 12 2 0 336.127 339.287 328.588
1749 12 2 0 335.955 339.402 326.816
1788 12 2 0 336.515 337.967 327.472
1704 12 1 0 334.953 339.374 329.499
1723 12 2 0 335.442 338.399 329.292
1744 12 2 0 336.955 339.588 327.955
1725 12 1 0 335.176 339.68 328.465
1742 12 2 0 337.25 338.95 328.863
1791 12 2 0 337.214 337.904 328.926
15855 106 2 0 331.433 336.32 353.11
1053 8 2 0 338.007 337.769 327.994
1051 8 2 0 337.982 338.308 327.119
1743 12 2 0 337.194 338.544 327.932
1882 13 1 0 339.623 339.553 327.729
1055 8 2 0 338.858 337.6 327.229
1884 13 2 0 339.045 338.237 328.329
1883 13 2 0 338.857 338.815 327.695
1880 13 2 0 337.929 339.331 327.319
1823 13 2 0 338.073 338.513 328.759
1885 13 2 0 339.706 337.822 327.978
1822 13 2 0 338.135 339.37 328.381
1820 13 2 0 339.124 339.923 328.557
1824 13 2 0 338.791 338.089 329.298
1821 13 2 0 338.724 339.307 328.53
9724 65 2 0 352.13 338.843 338.388
15658 105 2 0 349.322 328.452 353.121
7465 50 2 0 352.616 353.324 331.916
16860 113 2 0 340.205 338.104 353.453
1887 13 2 0 339.795 338.681 328.911
1917 13 2 0 342.465 338.832 326.973
1886 13 2 0 340.412 338.208 328.806
1910 13 2 0 341.17 338.506 327.221
1122 8 2 0 340.851 337.297 328.759
1888 13 2 0 340.467 338.728 327.978
1909 13 2 0 340.907 337.71 327.712
1890 13 2 0 340.895 339.596 328.632
1889 13 1 0 340.749 339.455 327.336
1907 13 2 0 341.577 338.502 328.033
1906 13 2 0 341.731 338.681 328.884
1908 13 2 0 341.827 337.728 328.42
1937 13 2 0 342.503 338.874 328.134
1918 13 1 0 342.485 339.989 327.016
1970 14 2 0 342.628 339.511 329.097
1934 13 2 0 341.712 339.361 327.683
1905 13 2 0 341.187 338.027 329.439