LAMMPS Script for IDP S4Yx30 

32400 atoms
32184 bonds

20 atom types
1 bond types

-269.8834251691431 269.8834251691431 xlo xhi
-269.8834251691431 269.8834251691431 ylo yhi
-269.8834251691431 269.8834251691431 zlo zhi


Atoms # full

1 1 15 0 -86.020 -79.920 -59.370
2 1 15 0 -82.250 -79.750 -60.620
3 1 15 0 -79.980 -78.060 -58.180
4 1 15 0 -77.940 -76.500 -55.400
5 1 9 0 -75.810 -75.880 -52.330
6 1 15 0 -74.210 -72.260 -52.080
7 1 15 0 -74.380 -68.470 -52.440
8 1 15 0 -70.970 -66.870 -53.420
9 1 15 0 -71.840 -63.740 -55.240
10 1 9 0 -75.010 -62.170 -56.880
11 1 15 0 -77.350 -64.870 -57.950
12 1 15 0 -79.700 -66.950 -55.740
13 1 15 0 -79.310 -70.380 -54.860
14 1 15 0 -82.650 -71.180 -53.850
15 1 9 0 -84.870 -73.840 -55.090
16 1 15 0 -85.610 -73.740 -58.890
17 1 15 0 -84.430 -75.220 -62.090
18 1 15 0 -82.820 -73.310 -64.930
19 1 15 0 -79.750 -73.380 -62.650
20 1 9 0 -78.400 -70.080 -61.350
21 1 15 0 -75.590 -67.720 -62.480
22 1 15 0 -76.810 -64.260 -63.720
23 1 15 0 -74.340 -61.520 -63.990
24 1 15 0 -70.760 -62.680 -63.010
25 1 9 0 -68.530 -59.900 -61.700
26 1 15 0 -69.930 -56.750 -62.810
27 1 15 0 -70.050 -53.200 -61.930
28 1 15 0 -69.370 -50.400 -64.280
29 1 15 0 -68.300 -52.720 -67.160
30 1 9 0 -70.450 -54.220 -69.840
31 1 15 0 -67.670 -55.080 -72.490
32 1 15 0 -66.590 -56.710 -75.820
33 1 15 0 -63.380 -55.110 -76.830
34 1 15 0 -61.420 -55.830 -73.520
35 1 9 0 -61.750 -55.840 -69.780
36 1 15 0 -64.810 -56.690 -67.430
37 1 15 0 -65.520 -60.520 -67.310
38 1 15 0 -68.470 -59.820 -69.750
39 1 15 0 -71.770 -61.400 -70.800
40 1 9 0 -72.520 -59.920 -74.440
41 1 15 0 -72.190 -61.900 -77.730
42 1 15 0 -69.040 -61.330 -80.050
43 1 15 0 -65.720 -63.380 -80.310
44 1 15 0 -67.160 -66.430 -78.710
45 1 9 0 -69.230 -69.090 -80.710
46 1 15 0 -69.350 -71.150 -77.530
47 1 15 0 -69.050 -71.280 -73.790
48 1 15 0 -70.440 -68.210 -72.070
49 1 15 0 -68.660 -64.830 -72.670
50 1 9 0 -65.090 -63.540 -73.740
51 1 15 0 -62.230 -62.010 -71.870
52 1 15 0 -58.680 -61.940 -71.060
53 1 15 0 -58.350 -62.150 -67.400
54 1 15 0 -60.580 -64.980 -66.630
55 1 9 0 -63.650 -66.790 -67.560
56 1 15 0 -67.460 -66.370 -67.190
57 1 15 0 -70.590 -67.960 -65.490
58 1 15 0 -71.450 -71.710 -65.580
59 1 15 0 -68.000 -73.210 -65.950
60 1 9 0 -64.660 -74.130 -67.960
61 1 15 0 -62.730 -74.920 -64.760
62 1 15 0 -62.910 -77.080 -61.790
63 1 15 0 -66.640 -78.330 -62.650
64 1 15 0 -67.950 -76.450 -59.570
65 1 9 0 -66.880 -72.780 -59.200
66 1 15 0 -67.810 -69.210 -57.860
67 1 15 0 -71.410 -68.420 -58.520
68 1 15 0 -73.640 -71.330 -57.320
69 1 15 0 -74.480 -74.260 -59.700
70 1 9 0 -73.680 -76.740 -62.500
71 1 15 0 -72.400 -78.440 -65.750
72 1 15 0 -70.230 -77.310 -68.790
73 1 15 0 -67.440 -79.320 -70.410
74 1 15 0 -64.810 -80.310 -67.610
75 1 9 0 -65.510 -83.830 -66.100
76 1 15 0 -67.870 -84.700 -68.990
77 1 15 0 -71.330 -83.470 -69.440
78 1 15 0 -73.650 -85.230 -66.960
79 1 15 0 -71.390 -84.720 -63.790
80 1 9 0 -70.830 -83.140 -60.400
81 1 15 0 -74.510 -82.660 -59.810
82 1 15 0 -75.460 -81.010 -56.540
83 1 15 0 -72.210 -81.630 -54.530
84 1 15 0 -71.930 -84.270 -52.130
85 1 9 0 -68.510 -84.810 -50.650
86 1 15 0 -66.750 -82.930 -53.330
87 1 15 0 -65.630 -81.520 -56.780
88 1 15 0 -63.270 -82.010 -59.650
89 1 15 0 -59.770 -83.260 -59.860
90 1 9 0 -57.080 -80.620 -60.390
91 1 15 0 -56.260 -76.950 -61.260
92 1 15 0 -57.750 -73.520 -61.080
93 1 15 0 -55.140 -71.420 -62.350
94 1 15 0 -51.470 -71.350 -62.750
95 1 9 0 -48.600 -69.040 -63.200
96 1 15 0 -50.100 -65.800 -64.590
97 1 15 0 -52.860 -65.540 -67.190
98 1 15 0 -53.710 -69.320 -67.570
99 1 15 0 -56.650 -71.540 -68.930
100 1 9 0 -57.240 -75.190 -67.750
101 1 15 0 -58.570 -78.300 -66.030
102 1 15 0 -59.000 -82.100 -66.260
103 1 15 0 -60.020 -83.470 -69.540
104 1 15 0 -60.750 -79.910 -70.550
105 1 9 0 -61.930 -78.150 -73.630
106 1 15 0 -63.910 -77.710 -76.770
107 1 15 0 -66.140 -75.680 -79.000
108 1 15 0 -63.610 -73.790 -80.960
109 1 15 0 -62.770 -71.170 -78.430
110 1 9 0 -63.200 -70.400 -74.890
111 1 15 0 -60.380 -70.850 -72.440
112 1 15 0 -58.740 -67.480 -71.700
113 1 15 0 -55.360 -68.540 -73.250
114 1 15 0 -54.460 -64.750 -73.690
115 1 9 0 -53.710 -61.920 -75.820
116 1 15 0 -56.910 -60.110 -75.520
117 1 15 0 -60.030 -61.150 -77.440
118 1 15 0 -59.590 -64.970 -77.360
119 1 15 0 -56.860 -66.750 -79.090
120 1 9 0 -54.060 -66.370 -81.820
121 1 15 0 -52.700 -64.910 -84.950
122 1 15 0 -49.350 -63.190 -85.020
123 1 15 0 -46.890 -64.350 -82.430
124 1 15 0 -48.080 -64.490 -78.970
125 1 9 0 -47.750 -65.710 -75.400
126 1 15 0 -48.730 -69.450 -74.920
127 1 15 0 -51.140 -70.080 -77.950
128 1 15 0 -48.270 -70.140 -80.430
129 1 15 0 -44.700 -69.200 -80.780
130 1 9 0 -41.480 -70.290 -82.320
131 1 15 0 -39.620 -73.550 -82.520
132 1 15 0 -40.510 -77.350 -83.230
133 1 15 0 -44.100 -76.960 -82.230
134 1 15 0 -47.150 -74.970 -82.740
135 1 9 0 -50.510 -75.930 -81.400
136 1 15 0 -50.340 -79.420 -79.670
137 1 15 0 -46.610 -80.270 -78.900
138 1 15 0 -43.880 -78.690 -76.770
139 1 15 0 -42.220 -75.230 -77.740
140 1 9 0 -43.390 -72.430 -75.500
141 1 15 0 -45.520 -74.360 -73.260
142 1 15 0 -49.070 -74.870 -74.480
143 1 15 0 -52.430 -73.320 -73.350
144 1 15 0 -56.010 -74.610 -74.510
145 1 9 0 -57.220 -73.810 -78.050
146 1 15 0 -58.640 -76.560 -80.430
147 1 15 0 -58.220 -80.420 -80.310
148 1 15 0 -60.670 -82.400 -78.430
149 1 15 0 -57.520 -83.310 -76.380
150 1 9 0 -54.880 -85.860 -77.230
151 2 15 0 -43.570 -64.920 -65.490
152 2 15 0 -45.650 -66.120 -68.310
153 2 15 0 -46.290 -69.930 -69.010
154 2 15 0 -49.560 -71.810 -68.880
155 2 9 0 -48.860 -75.520 -67.830
156 2 15 0 -48.890 -76.910 -64.370
157 2 15 0 -50.740 -79.450 -62.390
158 2 15 0 -52.750 -80.580 -65.300
159 2 15 0 -53.340 -80.700 -69.140
160 2 9 0 -52.440 -80.300 -72.890
161 2 15 0 -48.540 -80.270 -73.080
162 2 15 0 -45.600 -80.590 -70.510
163 2 15 0 -48.000 -81.950 -67.870
164 2 15 0 -45.620 -83.780 -65.840
165 2 9 0 -47.040 -85.640 -62.900
166 2 15 0 -44.330 -88.260 -62.280
167 2 15 0 -41.220 -87.040 -60.400
168 2 15 0 -39.100 -84.080 -61.960
169 2 15 0 -40.280 -80.760 -60.760
170 2 9 0 -43.620 -78.840 -61.300
171 2 15 0 -43.240 -78.350 -65.160
172 2 15 0 -40.910 -80.710 -67.190
173 2 15 0 -37.200 -81.520 -66.780
174 2 15 0 -36.580 -78.680 -64.520
175 2 9 0 -37.660 -75.150 -63.860
176 2 15 0 -40.460 -73.390 -62.210
177 2 15 0 -43.450 -72.560 -64.210
178 2 15 0 -42.380 -73.730 -67.730
179 2 15 0 -40.490 -76.160 -70.040
180 2 9 0 -37.220 -76.550 -71.530
181 2 15 0 -37.390 -76.120 -75.280
182 2 15 0 -37.530 -79.290 -77.620
183 2 15 0 -34.240 -81.160 -76.940
184 2 15 0 -33.320 -81.950 -73.110
185 2 9 0 -30.250 -80.280 -71.140
186 2 15 0 -30.670 -78.660 -67.840
187 2 15 0 -31.310 -81.140 -64.790
188 2 15 0 -27.960 -79.910 -63.410
189 2 15 0 -28.700 -79.140 -59.890
190 2 9 0 -32.390 -79.340 -59.090
191 2 15 0 -35.240 -81.830 -60.050
192 2 15 0 -34.240 -85.490 -59.660
193 2 15 0 -30.410 -85.450 -60.390
194 2 15 0 -27.930 -86.200 -63.180
195 2 9 0 -26.100 -85.340 -66.540
196 2 15 0 -22.700 -87.270 -66.170
197 2 15 0 -19.770 -84.790 -65.280
198 2 15 0 -17.560 -85.980 -68.000
199 2 15 0 -19.980 -85.400 -70.850
200 2 9 0 -22.570 -82.850 -71.860
201 2 15 0 -23.530 -79.860 -74.110
202 2 15 0 -26.720 -78.610 -75.880
203 2 15 0 -29.560 -78.200 -78.260
204 2 15 0 -32.810 -76.290 -78.830
205 2 9 0 -32.860 -73.970 -81.720
206 2 15 0 -30.750 -71.660 -84.290
207 2 15 0 -28.730 -68.410 -83.670
208 2 15 0 -27.440 -69.700 -80.300
209 2 15 0 -26.380 -73.230 -79.420
210 2 9 0 -24.800 -75.600 -81.800
211 2 15 0 -27.130 -78.220 -83.030
212 2 15 0 -30.680 -79.800 -83.480
213 2 15 0 -34.210 -80.550 -83.840
214 2 15 0 -34.410 -79.140 -87.450
215 2 9 0 -31.270 -79.140 -89.810
216 2 15 0 -28.010 -77.100 -89.280
217 2 15 0 -24.520 -76.780 -90.920
218 2 15 0 -21.690 -76.450 -88.420
219 2 15 0 -18.590 -75.930 -86.940
220 2 9 0 -17.230 -72.970 -85.430
221 2 15 0 -19.050 -72.550 -82.150
222 2 15 0 -19.520 -73.040 -78.450
223 2 15 0 -22.470 -74.060 -75.970
224 2 15 0 -19.620 -75.740 -73.860
225 2 9 0 -17.940 -77.030 -70.630
226 2 15 0 -18.070 -79.220 -67.430
227 2 15 0 -18.880 -77.230 -64.200
228 2 15 0 -22.370 -78.390 -65.040
229 2 15 0 -24.900 -77.940 -67.900
230 2 9 0 -25.120 -75.240 -70.390
231 2 15 0 -26.240 -71.860 -69.050
232 2 15 0 -27.680 -68.520 -67.800
233 2 15 0 -25.600 -69.090 -64.620
234 2 15 0 -26.050 -72.730 -63.790
235 2 9 0 -29.730 -73.500 -63.000
236 2 15 0 -31.700 -70.320 -62.130
237 2 15 0 -33.960 -69.890 -65.080
238 2 15 0 -33.610 -72.580 -67.770
239 2 15 0 -31.900 -71.780 -71.050
240 2 9 0 -30.820 -71.480 -74.620
241 2 15 0 -31.220 -68.190 -76.660
242 2 15 0 -31.740 -64.680 -76.210
243 2 15 0 -34.040 -61.960 -75.270
244 2 15 0 -35.480 -63.710 -72.130
245 2 9 0 -33.020 -64.670 -69.490
246 2 15 0 -35.190 -63.380 -66.540
247 2 15 0 -36.260 -64.930 -63.050
248 2 15 0 -39.160 -67.490 -63.720
249 2 15 0 -38.540 -67.990 -67.350
250 2 9 0 -39.780 -68.460 -70.880
251 2 15 0 -37.120 -70.330 -72.890
252 2 15 0 -37.020 -70.920 -76.700
253 2 15 0 -35.970 -68.250 -79.240
254 2 15 0 -37.370 -65.380 -77.130
255 2 9 0 -40.970 -64.330 -76.890
256 2 15 0 -41.510 -63.090 -73.450
257 2 15 0 -42.920 -60.760 -70.820
258 2 15 0 -40.210 -61.670 -68.260
259 2 15 0 -37.810 -59.250 -69.520
260 2 9 0 -35.790 -56.150 -69.510
261 2 15 0 -32.690 -57.120 -71.130
262 2 15 0 -31.390 -55.650 -74.540
263 2 15 0 -30.800 -57.680 -77.740
264 2 15 0 -28.900 -58.640 -80.900
265 2 9 0 -27.150 -61.810 -82.140
266 2 15 0 -30.230 -63.960 -81.950
267 2 15 0 -32.390 -63.270 -85.010
268 2 15 0 -34.120 -66.560 -83.600
269 2 15 0 -37.490 -65.330 -84.620
270 2 9 0 -39.750 -62.650 -83.510
271 2 15 0 -36.780 -60.840 -81.950
272 2 15 0 -34.230 -58.050 -81.790
273 2 15 0 -32.420 -57.510 -85.200
274 2 15 0 -29.190 -56.320 -86.650
275 2 9 0 -25.780 -55.230 -85.540
276 2 15 0 -23.630 -52.950 -83.170
277 2 15 0 -21.140 -53.810 -80.300
278 2 15 0 -22.840 -56.490 -78.220
279 2 15 0 -21.900 -60.020 -78.890
280 2 9 0 -19.600 -60.660 -81.800
281 2 15 0 -16.420 -61.030 -83.810
282 2 15 0 -13.800 -59.040 -85.460
283 2 15 0 -15.240 -55.620 -84.520
284 2 15 0 -17.820 -52.720 -85.120
285 2 9 0 -20.150 -51.560 -88.020
286 2 15 0 -22.900 -52.070 -90.740
287 2 15 0 -24.220 -55.580 -92.000
288 2 15 0 -26.410 -57.980 -93.950
289 2 15 0 -24.240 -60.680 -92.220
290 2 9 0 -25.360 -62.790 -89.390
291 2 15 0 -27.910 -65.400 -88.530
292 2 15 0 -26.850 -68.910 -89.700
293 2 15 0 -26.440 -71.880 -87.470
294 2 15 0 -23.280 -70.770 -85.720
295 2 9 0 -22.390 -67.340 -84.710
296 2 15 0 -21.130 -66.880 -81.050
297 2 15 0 -22.750 -65.640 -78.180
298 2 15 0 -25.540 -67.650 -75.930
299 2 15 0 -27.020 -64.430 -74.670
300 2 9 0 -26.740 -60.850 -73.440
301 3 15 0 -27.860 -55.150 -63.250
302 3 15 0 -29.700 -55.960 -66.460
303 3 15 0 -29.230 -59.700 -67.100
304 3 15 0 -30.380 -60.930 -63.730
305 3 9 0 -29.250 -64.180 -63.000
306 3 15 0 -25.610 -63.540 -62.330
307 3 15 0 -23.940 -64.010 -58.910
308 3 15 0 -22.590 -64.620 -55.460
309 3 15 0 -21.570 -61.280 -53.990
310 3 9 0 -19.540 -58.430 -54.970
311 3 15 0 -20.420 -57.180 -58.380
312 3 15 0 -23.120 -59.010 -60.280
313 3 15 0 -22.690 -58.780 -64.200
314 3 15 0 -23.190 -57.080 -67.710
315 3 9 0 -21.720 -56.310 -71.100
316 3 15 0 -19.300 -56.830 -74.170
317 3 15 0 -17.810 -60.160 -75.040
318 3 15 0 -20.430 -62.370 -73.450
319 3 15 0 -21.920 -64.600 -71.010
320 3 9 0 -23.230 -64.230 -67.730
321 3 15 0 -20.890 -66.420 -65.650
322 3 15 0 -17.470 -68.350 -65.630
323 3 15 0 -19.430 -71.830 -66.440
324 3 15 0 -20.520 -70.900 -69.780
325 3 9 0 -19.170 -69.640 -72.890
326 3 15 0 -16.020 -71.300 -73.830
327 3 15 0 -14.700 -73.200 -76.670
328 3 15 0 -12.210 -72.110 -79.530
329 3 15 0 -14.350 -69.260 -80.660
330 3 9 0 -14.910 -66.130 -78.640
331 3 15 0 -13.650 -62.590 -78.580
332 3 15 0 -10.480 -61.620 -76.340
333 3 15 0 -12.760 -59.900 -73.930
334 3 15 0 -14.620 -58.590 -70.970
335 3 9 0 -16.110 -60.950 -68.370
336 3 15 0 -16.380 -64.530 -69.220
337 3 15 0 -13.140 -66.680 -69.250
338 3 15 0 -12.330 -64.660 -72.300
339 3 15 0 -10.240 -66.920 -74.500
340 3 9 0 -7.900 -66.930 -77.570
341 3 15 0 -9.160 -65.190 -80.570
342 3 15 0 -6.480 -65.690 -83.210
343 3 15 0 -8.270 -63.710 -85.980
344 3 15 0 -9.790 -61.460 -88.650
345 3 9 0 -8.560 -57.760 -89.060
346 3 15 0 -9.210 -55.610 -85.900
347 3 15 0 -7.990 -55.870 -82.460
348 3 15 0 -10.520 -57.770 -80.310
349 3 15 0 -13.680 -56.800 -79.070
350 3 9 0 -14.980 -53.750 -77.430
351 3 15 0 -12.120 -52.630 -75.600
352 3 15 0 -8.840 -54.090 -77.050
353 3 15 0 -8.640 -55.720 -73.670
354 3 15 0 -10.130 -53.180 -70.990
355 3 9 0 -13.700 -52.040 -69.900
356 3 15 0 -15.950 -54.220 -67.590
357 3 15 0 -15.130 -53.970 -63.860
358 3 15 0 -16.930 -57.000 -62.620
359 3 15 0 -16.610 -60.770 -61.960
360 3 9 0 -17.660 -63.820 -59.940
361 3 15 0 -14.970 -65.570 -61.760
362 3 15 0 -11.880 -65.810 -63.940
363 3 15 0 -8.960 -64.350 -66.140
364 3 15 0 -9.300 -61.520 -68.690
365 3 9 0 -9.260 -57.930 -67.380
366 3 15 0 -5.560 -57.670 -68.090
367 3 15 0 -2.720 -58.860 -66.250
368 3 15 0 -4.220 -61.610 -64.340
369 3 15 0 -6.200 -61.370 -60.980
370 3 9 0 -9.700 -59.910 -60.840
371 3 15 0 -11.690 -62.680 -59.020
372 3 15 0 -11.420 -65.980 -57.450
373 3 15 0 -12.080 -69.700 -57.080
374 3 15 0 -10.860 -71.790 -59.830
375 3 9 0 -12.150 -72.340 -63.380
376 3 15 0 -13.280 -74.370 -66.400
377 3 15 0 -13.020 -73.020 -69.970
378 3 15 0 -10.350 -74.280 -72.160
379 3 15 0 -7.910 -71.290 -71.760
380 3 9 0 -6.180 -69.920 -68.680
381 3 15 0 -3.020 -69.780 -66.670
382 3 15 0 -0.740 -72.290 -68.280
383 3 15 0 -1.490 -75.970 -67.420
384 3 15 0 -0.630 -79.300 -65.320
385 3 9 0 1.510 -81.910 -66.740
386 3 15 0 3.120 -81.100 -69.880
387 3 15 0 1.910 -82.150 -73.360
388 3 15 0 -1.240 -83.700 -72.160
389 3 15 0 -4.910 -83.840 -70.790
390 3 9 0 -6.010 -80.990 -68.650
391 3 15 0 -9.020 -78.820 -68.160
392 3 15 0 -12.410 -79.860 -68.400
393 3 15 0 -12.800 -82.760 -71.020
394 3 15 0 -12.880 -82.470 -74.640
395 3 9 0 -14.710 -79.600 -76.530
396 3 15 0 -11.500 -77.520 -76.130
397 3 15 0 -8.660 -79.040 -74.570
398 3 15 0 -6.340 -81.820 -75.600
399 3 15 0 -8.600 -82.790 -78.610
400 3 9 0 -9.880 -81.460 -81.830
401 3 15 0 -7.860 -78.240 -81.190
402 3 15 0 -4.400 -77.900 -79.590
403 3 15 0 -0.860 -78.990 -80.060
404 3 15 0 0.610 -77.490 -77.070
405 3 9 0 -0.510 -76.320 -73.740
406 3 15 0 -4.210 -75.810 -73.670
407 3 15 0 -6.620 -74.070 -76.300
408 3 15 0 -5.970 -72.880 -79.760
409 3 15 0 -2.320 -72.670 -80.640
410 3 9 0 -0.390 -70.180 -78.450
411 3 15 0 -2.360 -69.550 -75.210
412 3 15 0 -0.260 -67.890 -72.280
413 3 15 0 2.410 -70.310 -72.320
414 3 15 0 5.110 -71.290 -74.900
415 3 9 0 7.120 -72.390 -77.860
416 3 15 0 4.900 -74.750 -79.790
417 3 15 0 2.140 -74.470 -82.460
418 3 15 0 4.320 -72.270 -84.100
419 3 15 0 1.970 -70.000 -86.200
420 3 9 0 -0.060 -67.030 -84.990
421 3 15 0 0.630 -63.450 -85.240
422 3 15 0 -1.790 -60.650 -85.570
423 3 15 0 -4.610 -59.990 -83.330
424 3 15 0 -3.340 -62.610 -80.830
425 3 9 0 -0.470 -62.880 -78.360
426 3 15 0 2.700 -64.670 -79.620
427 3 15 0 5.320 -66.880 -81.510
428 3 15 0 7.510 -66.780 -84.330
429 3 15 0 10.290 -65.260 -86.310
430 3 9 0 13.000 -63.060 -84.750
431 3 15 0 12.170 -59.940 -82.930
432 3 15 0 12.130 -56.230 -82.850
433 3 15 0 9.410 -54.410 -85.010
434 3 15 0 8.760 -57.800 -86.510
435 3 9 0 5.610 -59.630 -85.210
436 3 15 0 6.840 -61.740 -82.300
437 3 15 0 8.830 -62.520 -79.270
438 3 15 0 10.370 -59.410 -78.100
439 3 15 0 8.430 -56.470 -79.400
440 3 9 0 4.880 -57.220 -78.080
441 3 15 0 1.370 -56.120 -79.210
442 3 15 0 -2.400 -56.420 -79.850
443 3 15 0 -3.430 -57.230 -76.290
444 3 15 0 -0.140 -57.570 -74.200
445 3 9 0 1.370 -57.670 -70.860
446 3 15 0 2.980 -60.550 -69.200
447 3 15 0 2.120 -62.390 -65.760
448 3 15 0 -0.930 -64.630 -67.230
449 3 15 0 -3.190 -64.350 -70.330
450 3 9 0 -5.030 -62.240 -72.760
451 4 15 0 24.560 -52.390 -77.550
452 4 15 0 22.480 -52.670 -74.490
453 4 15 0 20.880 -56.260 -74.980
454 4 15 0 20.010 -57.030 -78.600
455 4 9 0 18.790 -60.020 -80.360
456 4 15 0 20.720 -60.800 -83.650
457 4 15 0 18.980 -60.600 -87.040
458 4 15 0 17.190 -57.400 -86.070
459 4 15 0 18.580 -54.790 -83.870
460 4 9 0 22.120 -53.630 -84.070
461 4 15 0 23.690 -56.640 -82.240
462 4 15 0 26.280 -59.020 -83.950
463 4 15 0 26.350 -57.600 -87.410
464 4 15 0 24.750 -60.800 -88.740
465 4 9 0 24.750 -64.560 -88.460
466 4 15 0 25.360 -64.260 -84.870
467 4 15 0 25.370 -66.460 -81.820
468 4 15 0 24.090 -63.200 -79.900
469 4 15 0 24.790 -60.020 -78.130
470 4 9 0 27.950 -57.700 -77.200
471 4 15 0 31.220 -59.070 -78.440
472 4 15 0 34.520 -60.560 -79.510
473 4 15 0 33.840 -64.270 -79.780
474 4 15 0 30.190 -64.780 -78.540
475 4 9 0 28.500 -65.700 -75.200
476 4 15 0 27.070 -63.980 -72.150
477 4 15 0 24.870 -60.970 -71.750
478 4 15 0 27.380 -58.720 -70.180
479 4 15 0 25.190 -56.410 -68.170
480 4 9 0 21.630 -56.300 -68.670
481 4 15 0 18.120 -56.780 -67.210
482 4 15 0 14.700 -56.660 -68.930
483 4 15 0 16.630 -57.030 -72.340
484 4 15 0 16.000 -60.220 -74.510
485 4 9 0 13.680 -63.410 -74.980
486 4 15 0 11.420 -66.570 -75.150
487 4 15 0 7.570 -66.090 -74.750
488 4 15 0 5.330 -62.930 -74.720
489 4 15 0 7.970 -60.620 -73.190
490 4 9 0 8.530 -57.290 -71.820
491 4 15 0 7.240 -53.870 -71.390
492 4 15 0 8.400 -50.300 -71.430
493 4 15 0 7.720 -49.750 -67.430
494 4 15 0 6.970 -52.920 -65.410
495 4 9 0 4.240 -55.280 -64.350
496 4 15 0 6.620 -57.960 -62.610
497 4 15 0 8.680 -58.960 -65.670
498 4 15 0 8.110 -62.290 -67.620
499 4 15 0 6.850 -64.660 -64.920
500 4 9 0 4.870 -67.830 -66.030
501 4 15 0 8.360 -69.120 -66.130
502 4 15 0 11.320 -71.340 -65.640
503 4 15 0 9.380 -73.560 -62.880
504 4 15 0 6.560 -75.340 -64.570
505 4 9 0 4.750 -74.960 -67.970
506 4 15 0 7.170 -73.080 -70.210
507 4 15 0 9.410 -69.980 -71.250
508 4 15 0 11.130 -66.850 -70.000
509 4 15 0 14.420 -65.450 -68.830
510 4 9 0 17.020 -62.750 -68.650
511 4 15 0 18.940 -61.450 -65.580
512 4 15 0 19.700 -63.650 -62.370
513 4 15 0 19.760 -67.190 -61.600
514 4 15 0 19.380 -68.300 -65.130
515 4 9 0 17.260 -71.210 -65.540
516 4 15 0 15.660 -73.200 -68.290
517 4 15 0 15.480 -73.030 -72.000
518 4 15 0 16.260 -69.550 -72.910
519 4 15 0 18.110 -67.210 -75.010
520 4 9 0 21.420 -65.080 -74.980
521 4 15 0 22.550 -67.290 -72.030
522 4 15 0 23.810 -68.100 -68.350
523 4 15 0 23.960 -71.390 -66.550
524 4 15 0 23.700 -74.330 -68.880
525 4 9 0 21.820 -73.390 -71.880
526 4 15 0 23.430 -71.630 -74.920
527 4 15 0 25.390 -71.430 -78.030
528 4 15 0 23.400 -71.140 -81.380
529 4 15 0 19.950 -69.970 -80.480
530 4 9 0 18.720 -66.850 -82.300
531 4 15 0 19.180 -66.270 -86.000
532 4 15 0 17.320 -65.940 -89.410
533 4 15 0 14.100 -67.230 -90.460
534 4 15 0 13.190 -69.600 -87.470
535 4 9 0 13.450 -72.180 -84.740
536 4 15 0 12.700 -69.550 -82.040
537 4 15 0 13.940 -69.290 -78.510
538 4 15 0 14.720 -72.940 -78.020
539 4 15 0 15.870 -76.240 -78.590
540 4 9 0 18.300 -77.800 -76.010
541 4 15 0 21.950 -78.730 -76.390
542 4 15 0 25.480 -77.720 -75.570
543 4 15 0 26.110 -78.290 -71.950
544 4 15 0 25.360 -82.050 -71.860
545 4 9 0 23.600 -85.040 -73.430
546 4 15 0 24.340 -88.870 -72.900
547 4 15 0 26.500 -91.590 -71.390
548 4 15 0 29.900 -91.320 -72.910
549 4 15 0 30.960 -88.310 -70.950
550 4 9 0 31.280 -85.300 -73.400
551 4 15 0 30.140 -85.810 -76.870
552 4 15 0 27.070 -84.090 -78.370
553 4 15 0 23.780 -82.710 -79.600
554 4 15 0 22.500 -84.820 -82.500
555 4 9 0 23.570 -88.430 -82.430
556 4 15 0 26.850 -89.280 -80.600
557 4 15 0 27.230 -92.210 -78.200
558 4 15 0 26.260 -95.190 -76.010
559 4 15 0 23.930 -96.810 -78.570
560 4 9 0 23.500 -96.140 -82.100
561 4 15 0 25.050 -94.240 -85.100
562 4 15 0 28.540 -95.200 -86.000
563 4 15 0 29.430 -91.860 -84.250
564 4 15 0 33.050 -90.400 -83.650
565 4 9 0 33.230 -90.170 -79.790
566 4 15 0 35.450 -87.740 -77.920
567 4 15 0 37.970 -88.820 -75.240
568 4 15 0 36.520 -89.750 -71.800
569 4 15 0 39.740 -89.400 -69.290
570 4 9 0 42.880 -87.800 -67.790
571 4 15 0 42.250 -84.090 -66.780
572 4 15 0 39.130 -82.600 -68.670
573 4 15 0 38.910 -83.190 -72.500
574 4 15 0 36.560 -82.080 -75.340
575 4 9 0 34.350 -81.320 -78.460
576 4 15 0 30.700 -80.170 -77.770
577 4 15 0 29.250 -78.110 -80.570
578 4 15 0 28.640 -74.730 -82.340
579 4 15 0 28.460 -71.190 -83.400
580 4 9 0 31.080 -68.470 -84.400
581 4 15 0 32.310 -68.700 -87.990
582 4 15 0 35.170 -71.120 -88.850
583 4 15 0 33.120 -74.360 -88.160
584 4 15 0 29.520 -73.550 -88.090
585 4 9 0 26.190 -72.640 -89.390
586 4 15 0 23.130 -72.900 -87.140
587 4 15 0 19.700 -71.560 -88.220
588 4 15 0 20.100 -72.680 -91.790
589 4 15 0 18.980 -76.260 -91.340
590 4 9 0 22.200 -78.440 -91.600
591 4 15 0 24.020 -79.770 -88.610
592 4 15 0 24.570 -77.820 -85.330
593 4 15 0 23.330 -78.320 -81.770
594 4 15 0 20.000 -79.650 -82.980
595 4 9 0 17.500 -79.020 -85.660
596 4 15 0 17.270 -82.590 -86.760
597 4 15 0 20.220 -83.750 -88.870
598 4 15 0 23.120 -86.120 -88.810
599 4 15 0 23.840 -89.900 -88.450
600 4 9 0 27.140 -91.050 -90.100
601 5 15 0 24.480 -79.070 -59.530
602 5 15 0 27.360 -77.160 -60.940
603 5 15 0 26.060 -77.340 -64.390
604 5 15 0 28.530 -78.260 -67.060
605 5 9 0 30.260 -81.680 -67.010
606 5 15 0 33.310 -80.030 -65.910
607 5 15 0 33.730 -77.930 -62.860
608 5 15 0 32.530 -74.380 -63.500
609 5 15 0 30.790 -73.590 -67.050
610 5 9 0 29.770 -71.160 -69.830
611 5 15 0 30.790 -67.350 -69.450
612 5 15 0 29.840 -65.530 -66.270
613 5 15 0 31.760 -66.540 -63.090
614 5 15 0 34.220 -68.880 -64.570
615 5 9 0 37.750 -67.260 -64.880
616 5 15 0 39.860 -69.550 -62.810
617 5 15 0 39.000 -73.070 -64.450
618 5 15 0 38.210 -75.020 -67.700
619 5 15 0 35.810 -77.210 -69.980
620 5 9 0 32.730 -77.190 -72.090
621 5 15 0 30.970 -74.890 -74.640
622 5 15 0 31.940 -73.040 -77.850
623 5 15 0 33.350 -69.610 -77.260
624 5 15 0 35.340 -68.290 -74.440
625 5 9 0 37.770 -69.330 -71.670
626 5 15 0 40.450 -70.830 -73.940
627 5 15 0 40.600 -74.000 -76.020
628 5 15 0 38.580 -77.240 -75.240
629 5 15 0 40.100 -79.110 -78.220
630 5 9 0 43.380 -77.990 -79.900
631 5 15 0 41.860 -75.190 -82.000
632 5 15 0 43.680 -71.840 -82.670
633 5 15 0 44.840 -68.260 -82.270
634 5 15 0 42.160 -66.950 -79.870
635 5 9 0 40.450 -65.050 -76.840
636 5 15 0 40.460 -61.840 -78.950
637 5 15 0 40.660 -61.060 -82.700
638 5 15 0 41.210 -57.460 -83.940
639 5 15 0 42.030 -53.640 -84.270
640 5 9 0 42.940 -51.720 -87.600
641 5 15 0 46.360 -51.820 -86.020
642 5 15 0 49.810 -50.660 -84.970
643 5 15 0 51.080 -50.280 -81.280
644 5 15 0 48.110 -50.960 -79.010
645 5 9 0 45.480 -52.940 -77.020
646 5 15 0 43.380 -55.560 -78.780
647 5 15 0 39.580 -54.680 -78.490
648 5 15 0 37.320 -55.970 -75.800
649 5 15 0 37.520 -59.220 -74.060
650 5 9 0 34.960 -61.900 -73.530
651 5 15 0 35.460 -63.300 -70.020
652 5 15 0 33.860 -61.970 -66.580
653 5 15 0 33.250 -58.470 -67.890
654 5 15 0 33.030 -55.900 -70.780
655 5 9 0 33.490 -52.170 -69.730
656 5 15 0 36.430 -50.950 -67.990
657 5 15 0 40.080 -51.710 -68.830
658 5 15 0 39.800 -53.070 -72.190
659 5 15 0 42.210 -56.030 -72.530
660 5 9 0 44.300 -59.150 -73.670
661 5 15 0 47.040 -61.020 -71.630
662 5 15 0 45.790 -63.610 -69.150
663 5 15 0 42.850 -65.160 -70.950
664 5 15 0 40.370 -62.810 -69.500
665 5 9 0 40.470 -59.810 -67.370
666 5 15 0 42.620 -57.280 -65.310
667 5 15 0 45.900 -55.830 -67.000
668 5 15 0 48.300 -58.440 -65.510
669 5 15 0 47.480 -61.830 -64.070
670 5 9 0 44.190 -62.320 -62.130
671 5 15 0 43.430 -60.260 -59.320
672 5 15 0 44.500 -56.660 -59.670
673 5 15 0 47.460 -55.190 -61.360
674 5 15 0 51.180 -54.410 -60.940
675 5 9 0 54.780 -53.720 -60.810
676 5 15 0 57.700 -52.930 -58.670
677 5 15 0 60.390 -54.980 -57.030
678 5 15 0 63.350 -56.830 -55.670
679 5 15 0 65.790 -59.540 -56.860
680 5 9 0 66.160 -60.090 -60.670
681 5 15 0 62.670 -60.420 -61.700
682 5 15 0 59.100 -59.940 -60.860
683 5 15 0 56.690 -59.490 -58.220
684 5 15 0 53.170 -58.920 -56.620
685 5 9 0 49.670 -60.190 -57.310
686 5 15 0 48.600 -63.740 -57.610
687 5 15 0 48.740 -65.260 -54.060
688 5 15 0 45.740 -66.560 -52.140
689 5 15 0 42.240 -67.370 -53.290
690 5 9 0 41.070 -66.070 -56.710
691 5 15 0 43.430 -68.050 -58.760
692 5 15 0 43.080 -71.680 -58.470
693 5 15 0 42.490 -72.970 -55.000
694 5 15 0 39.260 -71.950 -53.300
695 5 9 0 36.250 -69.690 -53.230
696 5 15 0 33.760 -67.780 -55.420
697 5 15 0 31.200 -69.180 -57.720
698 5 15 0 33.970 -71.090 -59.600
699 5 15 0 37.350 -73.090 -59.690
700 5 9 0 37.440 -76.310 -57.560
701 5 15 0 36.470 -79.900 -56.970
702 5 15 0 38.700 -82.820 -58.170
703 5 15 0 38.060 -82.100 -61.940
704 5 15 0 39.040 -78.550 -63.330
705 5 9 0 42.600 -78.090 -63.810
706 5 15 0 45.680 -76.160 -63.420
707 5 15 0 47.120 -72.980 -61.990
708 5 15 0 47.260 -69.340 -62.700
709 5 15 0 44.680 -68.570 -65.390
710 5 9 0 44.080 -71.350 -68.120
711 5 15 0 46.090 -71.390 -71.400
712 5 15 0 48.430 -68.430 -70.460
713 5 15 0 51.190 -71.120 -69.650
714 5 15 0 51.260 -72.500 -66.270
715 5 9 0 53.430 -74.710 -64.170
716 5 15 0 56.170 -76.650 -62.840
717 5 15 0 59.960 -76.850 -63.160
718 5 15 0 59.810 -73.100 -63.510
719 5 15 0 57.600 -70.080 -63.840
720 5 9 0 56.690 -68.600 -67.070
721 5 15 0 55.570 -65.590 -69.100
722 5 15 0 52.160 -63.890 -69.100
723 5 15 0 50.960 -65.610 -65.790
724 5 15 0 51.720 -66.070 -62.070
725 5 9 0 55.230 -64.780 -61.330
726 5 15 0 55.540 -62.100 -63.730
727 5 15 0 54.460 -58.610 -64.700
728 5 15 0 53.760 -59.240 -68.390
729 5 15 0 51.650 -56.410 -70.020
730 5 9 0 51.050 -56.150 -73.820
731 5 15 0 50.920 -59.500 -75.300
732 5 15 0 52.890 -62.840 -74.640
733 5 15 0 53.530 -66.460 -74.280
734 5 15 0 55.330 -69.600 -73.060
735 5 9 0 57.430 -72.760 -73.060
736 5 15 0 56.210 -74.430 -70.170
737 5 15 0 58.890 -76.660 -68.730
738 5 15 0 57.230 -79.950 -68.330
739 5 15 0 57.000 -83.290 -70.460
740 5 9 0 56.370 -82.640 -74.110
741 5 15 0 57.080 -78.850 -74.390
742 5 15 0 59.240 -77.300 -77.010
743 5 15 0 60.030 -80.250 -79.130
744 5 15 0 56.470 -80.180 -80.470
745 5 9 0 54.900 -83.680 -81.390
746 5 15 0 54.080 -87.020 -79.890
747 5 15 0 55.920 -87.810 -76.840
748 5 15 0 59.600 -88.210 -77.120
749 5 15 0 61.760 -86.690 -74.470
750 5 9 0 63.170 -83.400 -73.420
751 6 15 0 70.670 -35.520 -88.590
752 6 15 0 70.980 -37.990 -85.800
753 6 15 0 72.190 -38.790 -82.380
754 6 15 0 69.100 -38.800 -80.530
755 6 9 0 68.310 -39.970 -77.190
756 6 15 0 64.900 -41.300 -78.360
757 6 15 0 65.360 -45.240 -78.540
758 6 15 0 66.510 -47.440 -75.500
759 6 15 0 68.930 -50.650 -75.360
760 6 9 0 68.380 -53.410 -78.030
761 6 15 0 65.870 -51.710 -80.310
762 6 15 0 62.130 -50.680 -81.140
763 6 15 0 61.130 -51.190 -84.770
764 6 15 0 59.480 -51.450 -88.090
765 6 9 0 55.720 -52.060 -88.720
766 6 15 0 53.660 -55.170 -87.530
767 6 15 0 51.800 -56.920 -90.410
768 6 15 0 48.310 -55.550 -89.650
769 6 15 0 48.060 -57.610 -86.340
770 6 9 0 47.820 -56.560 -82.670
771 6 15 0 50.670 -56.530 -80.180
772 6 15 0 53.500 -58.950 -80.420
773 6 15 0 56.670 -60.710 -79.210
774 6 15 0 60.260 -59.840 -80.260
775 6 9 0 63.450 -58.200 -78.860
776 6 15 0 63.600 -56.160 -82.040
777 6 15 0 61.350 -56.730 -84.990
778 6 15 0 57.910 -56.170 -83.790
779 6 15 0 56.590 -53.990 -81.080
780 6 9 0 57.100 -54.640 -77.400
781 6 15 0 58.120 -56.180 -73.950
782 6 15 0 56.810 -59.760 -72.960
783 6 15 0 59.460 -62.280 -74.100
784 6 15 0 59.440 -65.680 -72.440
785 6 9 0 62.460 -67.740 -71.550
786 6 15 0 63.480 -71.080 -72.930
787 6 15 0 64.400 -73.770 -75.350
788 6 15 0 63.140 -76.880 -73.490
789 6 15 0 65.990 -76.960 -70.870
790 6 9 0 65.540 -75.000 -67.730
791 6 15 0 64.040 -71.790 -66.380
792 6 15 0 63.180 -68.710 -64.270
793 6 15 0 61.340 -66.120 -62.290
794 6 15 0 61.150 -63.980 -65.320
795 6 9 0 60.710 -60.940 -67.760
796 6 15 0 63.830 -58.890 -66.860
797 6 15 0 67.160 -57.150 -67.190
798 6 15 0 70.060 -56.180 -64.930
799 6 15 0 72.900 -58.740 -64.940
800 6 9 0 73.640 -59.880 -68.800
801 6 15 0 74.710 -56.600 -70.040
802 6 15 0 72.540 -53.810 -70.580
803 6 15 0 73.130 -50.360 -68.930
804 6 15 0 73.740 -52.120 -65.500
805 6 9 0 76.690 -54.310 -64.470
806 6 15 0 79.810 -56.240 -65.830
807 6 15 0 83.430 -56.890 -64.900
808 6 15 0 82.790 -56.960 -61.390
809 6 15 0 79.630 -58.770 -61.010
810 6 9 0 77.760 -61.640 -62.200
811 6 15 0 79.860 -62.700 -65.280
812 6 15 0 83.770 -62.560 -64.810
813 6 15 0 84.890 -62.470 -61.210
814 6 15 0 83.460 -65.370 -59.360
815 6 9 0 81.510 -67.910 -61.400
816 6 15 0 77.900 -68.790 -62.630
817 6 15 0 74.430 -67.330 -62.650
818 6 15 0 71.690 -65.540 -61.250
819 6 15 0 70.190 -63.440 -63.930
820 6 9 0 67.640 -64.170 -66.580
821 6 15 0 67.800 -63.110 -70.230
822 6 15 0 65.990 -60.500 -72.370
823 6 15 0 68.760 -58.500 -74.040
824 6 15 0 70.340 -61.240 -76.020
825 6 9 0 71.980 -64.420 -74.730
826 6 15 0 75.440 -65.770 -73.610
827 6 15 0 77.420 -64.450 -70.560
828 6 15 0 75.130 -65.990 -67.830
829 6 15 0 72.610 -68.450 -69.270
830 6 9 0 69.370 -69.770 -70.500
831 6 15 0 69.990 -73.300 -71.030
832 6 15 0 73.390 -74.300 -72.260
833 6 15 0 73.820 -73.640 -76.060
834 6 15 0 71.370 -76.320 -76.970
835 6 9 0 69.790 -79.650 -76.530
836 6 15 0 66.310 -78.900 -77.730
837 6 15 0 66.480 -77.960 -81.470
838 6 15 0 69.350 -79.590 -83.320
839 6 15 0 72.720 -78.140 -82.460
840 6 9 0 75.430 -75.500 -81.890
841 6 15 0 75.580 -71.770 -81.580
842 6 15 0 76.930 -69.220 -78.890
843 6 15 0 74.190 -66.960 -80.040
844 6 15 0 70.520 -67.310 -80.730
845 6 9 0 69.030 -70.210 -78.790
846 6 15 0 68.960 -73.520 -80.650
847 6 15 0 69.230 -73.580 -84.480
848 6 15 0 70.150 -69.880 -85.350
849 6 15 0 69.060 -70.920 -88.840
850 6 9 0 71.040 -72.060 -91.960
851 6 15 0 74.850 -72.160 -91.350
852 6 15 0 76.370 -72.040 -88.000
853 6 15 0 79.060 -69.880 -89.340
854 6 15 0 79.540 -66.260 -87.980
855 6 9 0 76.570 -65.920 -85.550
856 6 15 0 72.940 -65.440 -85.880
857 6 15 0 69.700 -64.020 -84.730
858 6 15 0 69.790 -60.150 -83.740
859 6 15 0 72.730 -61.110 -81.500
860 6 9 0 74.330 -58.000 -80.130
861 6 15 0 76.080 -58.880 -76.620
862 6 15 0 78.030 -61.900 -75.610
863 6 15 0 78.440 -63.270 -79.080
864 6 15 0 81.950 -64.090 -78.010
865 6 9 0 82.070 -67.150 -75.840
866 6 15 0 82.310 -65.130 -72.450
867 6 15 0 85.240 -66.350 -70.320
868 6 15 0 84.810 -68.260 -67.060
869 6 15 0 81.170 -68.610 -67.450
870 6 9 0 78.900 -71.290 -68.970
871 6 15 0 80.470 -72.360 -72.270
872 6 15 0 79.110 -74.180 -75.240
873 6 15 0 81.020 -75.390 -78.220
874 6 15 0 81.330 -72.480 -80.300